
     Program PROJWFC v.7.0 starts on 19Sep2022 at 14:46:38 

     This program is part of the open-source Quantum ESPRESSO suite
     for quantum simulation of materials; please cite
         "P. Giannozzi et al., J. Phys.:Condens. Matter 21 395502 (2009);
         "P. Giannozzi et al., J. Phys.:Condens. Matter 29 465901 (2017);
         "P. Giannozzi et al., J. Chem. Phys. 152 154105 (2020);
          URL http://www.quantum-espresso.org", 
     in publications or presentations arising from this work. More details at
     http://www.quantum-espresso.org/quote

     Parallel version (MPI), running on    16 processors

     MPI processes distributed on     1 nodes
     R & G space division:  proc/nbgrp/npool/nimage =      16
     58531 MiB available memory on the printing compute node when the environment starts


     Reading xml data from directory:

     /scratch/vinicius/HSE/hetero-HSE2/Sb111.save/
     EXX fraction changed:   0.25
     EXX Screening parameter changed:    0.1060000
     file Sb.pbe-n-rrkjus_psl.1.0.0.UPF: wavefunction(s)  5S renormalized

     IMPORTANT: XC functional enforced from input :
     Exchange-correlation= HSE
                           (   1   4  12   4   0   0   0)
     EXX-fraction              =        0.25
     Any further DFT definition will be discarded
     Please, verify this is what you really want


     Parallelization info
     --------------------
     sticks:   dense  smooth     PW     G-vecs:    dense   smooth      PW
     Min         840     418    126               226868    80170   13350
     Max         841     419    127               226881    80183   13361
     Sum       13455    6697   2025              3630059  1282815  213673

     Using Slab Decomposition


     negative rho (up, down):  2.828E-04 0.000E+00

     Gaussian broadening (read from input): ngauss,degauss=   0    0.005000


     Calling projwave .... 

     Subspace diagonalization in iterative solution of the eigenvalue problem:
     a serial algorithm will be used


  Problem Sizes 
  natomwfc =           80
  nbnd     =           67
  nkstot   =           10
  npwx     =        10185
  nkb      =          300


     Atomic states used for projection
     (read from pseudopotential files):

     state #   1: atom   1 (Sb ), wfc  1 (l=0 m= 1)
     state #   2: atom   1 (Sb ), wfc  2 (l=1 m= 1)
     state #   3: atom   1 (Sb ), wfc  2 (l=1 m= 2)
     state #   4: atom   1 (Sb ), wfc  2 (l=1 m= 3)
     state #   5: atom   2 (Sb ), wfc  1 (l=0 m= 1)
     state #   6: atom   2 (Sb ), wfc  2 (l=1 m= 1)
     state #   7: atom   2 (Sb ), wfc  2 (l=1 m= 2)
     state #   8: atom   2 (Sb ), wfc  2 (l=1 m= 3)
     state #   9: atom   3 (Sb ), wfc  1 (l=0 m= 1)
     state #  10: atom   3 (Sb ), wfc  2 (l=1 m= 1)
     state #  11: atom   3 (Sb ), wfc  2 (l=1 m= 2)
     state #  12: atom   3 (Sb ), wfc  2 (l=1 m= 3)
     state #  13: atom   4 (Sb ), wfc  1 (l=0 m= 1)
     state #  14: atom   4 (Sb ), wfc  2 (l=1 m= 1)
     state #  15: atom   4 (Sb ), wfc  2 (l=1 m= 2)
     state #  16: atom   4 (Sb ), wfc  2 (l=1 m= 3)
     state #  17: atom   5 (Sb ), wfc  1 (l=0 m= 1)
     state #  18: atom   5 (Sb ), wfc  2 (l=1 m= 1)
     state #  19: atom   5 (Sb ), wfc  2 (l=1 m= 2)
     state #  20: atom   5 (Sb ), wfc  2 (l=1 m= 3)
     state #  21: atom   6 (Sb ), wfc  1 (l=0 m= 1)
     state #  22: atom   6 (Sb ), wfc  2 (l=1 m= 1)
     state #  23: atom   6 (Sb ), wfc  2 (l=1 m= 2)
     state #  24: atom   6 (Sb ), wfc  2 (l=1 m= 3)
     state #  25: atom   7 (Sb ), wfc  1 (l=0 m= 1)
     state #  26: atom   7 (Sb ), wfc  2 (l=1 m= 1)
     state #  27: atom   7 (Sb ), wfc  2 (l=1 m= 2)
     state #  28: atom   7 (Sb ), wfc  2 (l=1 m= 3)
     state #  29: atom   8 (Sb ), wfc  1 (l=0 m= 1)
     state #  30: atom   8 (Sb ), wfc  2 (l=1 m= 1)
     state #  31: atom   8 (Sb ), wfc  2 (l=1 m= 2)
     state #  32: atom   8 (Sb ), wfc  2 (l=1 m= 3)
     state #  33: atom   9 (Se ), wfc  1 (l=0 m= 1)
     state #  34: atom   9 (Se ), wfc  2 (l=1 m= 1)
     state #  35: atom   9 (Se ), wfc  2 (l=1 m= 2)
     state #  36: atom   9 (Se ), wfc  2 (l=1 m= 3)
     state #  37: atom  10 (Se ), wfc  1 (l=0 m= 1)
     state #  38: atom  10 (Se ), wfc  2 (l=1 m= 1)
     state #  39: atom  10 (Se ), wfc  2 (l=1 m= 2)
     state #  40: atom  10 (Se ), wfc  2 (l=1 m= 3)
     state #  41: atom  11 (Se ), wfc  1 (l=0 m= 1)
     state #  42: atom  11 (Se ), wfc  2 (l=1 m= 1)
     state #  43: atom  11 (Se ), wfc  2 (l=1 m= 2)
     state #  44: atom  11 (Se ), wfc  2 (l=1 m= 3)
     state #  45: atom  12 (Se ), wfc  1 (l=0 m= 1)
     state #  46: atom  12 (Se ), wfc  2 (l=1 m= 1)
     state #  47: atom  12 (Se ), wfc  2 (l=1 m= 2)
     state #  48: atom  12 (Se ), wfc  2 (l=1 m= 3)
     state #  49: atom  13 (Se ), wfc  1 (l=0 m= 1)
     state #  50: atom  13 (Se ), wfc  2 (l=1 m= 1)
     state #  51: atom  13 (Se ), wfc  2 (l=1 m= 2)
     state #  52: atom  13 (Se ), wfc  2 (l=1 m= 3)
     state #  53: atom  14 (Se ), wfc  1 (l=0 m= 1)
     state #  54: atom  14 (Se ), wfc  2 (l=1 m= 1)
     state #  55: atom  14 (Se ), wfc  2 (l=1 m= 2)
     state #  56: atom  14 (Se ), wfc  2 (l=1 m= 3)
     state #  57: atom  15 (S  ), wfc  1 (l=0 m= 1)
     state #  58: atom  15 (S  ), wfc  2 (l=1 m= 1)
     state #  59: atom  15 (S  ), wfc  2 (l=1 m= 2)
     state #  60: atom  15 (S  ), wfc  2 (l=1 m= 3)
     state #  61: atom  16 (S  ), wfc  1 (l=0 m= 1)
     state #  62: atom  16 (S  ), wfc  2 (l=1 m= 1)
     state #  63: atom  16 (S  ), wfc  2 (l=1 m= 2)
     state #  64: atom  16 (S  ), wfc  2 (l=1 m= 3)
     state #  65: atom  17 (S  ), wfc  1 (l=0 m= 1)
     state #  66: atom  17 (S  ), wfc  2 (l=1 m= 1)
     state #  67: atom  17 (S  ), wfc  2 (l=1 m= 2)
     state #  68: atom  17 (S  ), wfc  2 (l=1 m= 3)
     state #  69: atom  18 (S  ), wfc  1 (l=0 m= 1)
     state #  70: atom  18 (S  ), wfc  2 (l=1 m= 1)
     state #  71: atom  18 (S  ), wfc  2 (l=1 m= 2)
     state #  72: atom  18 (S  ), wfc  2 (l=1 m= 3)
     state #  73: atom  19 (S  ), wfc  1 (l=0 m= 1)
     state #  74: atom  19 (S  ), wfc  2 (l=1 m= 1)
     state #  75: atom  19 (S  ), wfc  2 (l=1 m= 2)
     state #  76: atom  19 (S  ), wfc  2 (l=1 m= 3)
     state #  77: atom  20 (S  ), wfc  1 (l=0 m= 1)
     state #  78: atom  20 (S  ), wfc  2 (l=1 m= 1)
     state #  79: atom  20 (S  ), wfc  2 (l=1 m= 2)
     state #  80: atom  20 (S  ), wfc  2 (l=1 m= 3)

 k =   0.0000000000  0.0000000000  0.0000000000
==== e(   1) =   -19.24217 eV ==== 
     psi = 0.102*[#  65]+0.094*[#  69]+0.080*[#  45]+0.078*[#  41]+0.073*[#  49]
          +0.062*[#  21]+0.061*[#  25]+0.054*[#  61]+0.053*[#   9]+0.052*[#  73]
          +0.046*[#  37]+0.045*[#   5]+0.023*[#  13]+0.022*[#  53]+0.018*[#  17]
          +0.014*[#  29]+0.013*[#   1]+0.012*[#  23]+0.009*[#  33]+0.009*[#  57]
          +0.008*[#  27]+0.007*[#   7]+0.007*[#  77]+0.006*[#  11]+0.004*[#  15]
          +0.004*[#  18]+0.004*[#  30]+0.003*[#  70]+0.002*[#  47]+0.002*[#  63]
          +0.002*[#  66]+0.002*[#  71]+0.002*[#  42]+0.002*[#   3]+0.002*[#  31]
          +0.002*[#  67]+0.002*[#  75]+0.002*[#   2]+0.002*[#  39]+0.002*[#  43]
          +0.001*[#  46]+0.001*[#  14]+0.001*[#  74]+0.001*[#  51]+0.001*[#  54]
          +0.001*[#  58]+0.001*[#  62]
    |psi|^2 = 0.999
==== e(   2) =   -19.20121 eV ==== 
     psi = 0.102*[#  41]+0.092*[#  45]+0.088*[#  69]+0.085*[#  65]+0.069*[#  37]
          +0.060*[#   5]+0.057*[#  21]+0.054*[#   9]+0.051*[#  25]+0.050*[#  61]
          +0.049*[#  49]+0.046*[#  73]+0.019*[#   1]+0.014*[#  33]+0.014*[#  13]
          +0.014*[#  17]+0.013*[#  29]+0.013*[#  27]+0.012*[#  22]+0.010*[#  23]
          +0.010*[#  11]+0.008*[#  26]+0.008*[#   7]+0.008*[#  53]+0.007*[#  57]
          +0.007*[#   6]+0.007*[#  77]+0.006*[#  10]+0.004*[#  14]+0.003*[#  19]
          +0.003*[#  51]+0.003*[#  67]+0.003*[#   3]+0.003*[#  43]+0.002*[#  39]
          +0.002*[#  46]+0.002*[#  62]+0.002*[#  47]+0.002*[#  70]+0.002*[#  63]
          +0.002*[#  75]+0.002*[#   2]+0.002*[#  30]+0.002*[#  66]+0.002*[#  71]
          +0.002*[#  74]+0.002*[#  31]+0.002*[#  38]+0.002*[#  42]+0.001*[#  15]
          +0.001*[#  50]
    |psi|^2 = 1.024
==== e(   3) =   -18.77440 eV ==== 
     psi = 0.187*[#  37]+0.182*[#  49]+0.133*[#  53]+0.114*[#  33]+0.088*[#  13]
          +0.081*[#   1]+0.028*[#   5]+0.021*[#   9]+0.020*[#  41]+0.017*[#  15]
          +0.016*[#   3]+0.014*[#  45]+0.005*[#  51]+0.005*[#  39]+0.003*[#  18]
          +0.004*[#  43]+0.003*[#  30]+0.003*[#  47]+0.003*[#  14]+0.003*[#  66]
          +0.003*[#  70]+0.002*[#  46]+0.002*[#   2]+0.002*[#  27]+0.002*[#  42]
          +0.002*[#  61]+0.002*[#  50]+0.001*[#  69]+0.001*[#  21]+0.001*[#  34]
          +0.001*[#  54]+0.001*[#  38]+0.001*[#  62]
    |psi|^2 = 0.960
==== e(   4) =   -18.57358 eV ==== 
     psi = 0.207*[#  73]+0.188*[#  61]+0.091*[#  57]+0.090*[#  77]+0.084*[#  17]
          +0.083*[#  29]+0.035*[#  25]+0.029*[#  21]+0.023*[#  69]+0.022*[#  65]
          +0.017*[#  31]+0.016*[#  19]+0.013*[#  26]+0.010*[#  22]+0.010*[#  10]
          +0.008*[#   6]+0.006*[#  63]+0.006*[#  75]+0.005*[#  71]+0.005*[#  67]
          +0.003*[#  18]+0.003*[#  50]+0.003*[#  66]+0.003*[#  53]+0.003*[#   2]
          +0.003*[#  42]+0.002*[#  38]+0.002*[#  46]+0.002*[#  62]+0.002*[#  74]
          +0.002*[#  70]+0.002*[#  30]+0.001*[#  14]+0.001*[#  33]
    |psi|^2 = 0.987
==== e(   5) =   -18.34641 eV ==== 
     psi = 0.231*[#  33]+0.223*[#  53]+0.086*[#  41]+0.081*[#  45]+0.078*[#   1]
          +0.068*[#  13]+0.029*[#  37]+0.024*[#  14]+0.023*[#   2]+0.018*[#   9]
          +0.017*[#  49]+0.013*[#   5]+0.013*[#   3]+0.013*[#   7]+0.011*[#  11]
          +0.010*[#  15]+0.009*[#   6]+0.008*[#  10]+0.006*[#  34]+0.005*[#  54]
          +0.005*[#  42]+0.004*[#  46]+0.004*[#  50]+0.004*[#  38]+0.002*[#  27]
          +0.002*[#  77]+0.001*[#  69]+0.001*[#  29]
    |psi|^2 = 0.998
==== e(   6) =   -18.00740 eV ==== 
     psi = 0.216*[#  57]+0.192*[#  77]+0.088*[#  17]+0.082*[#  29]+0.077*[#  69]
          +0.073*[#  65]+0.049*[#  73]+0.044*[#  61]+0.017*[#  31]+0.016*[#  19]
          +0.015*[#  27]+0.014*[#  23]+0.013*[#   2]+0.013*[#   6]+0.012*[#  21]
          +0.011*[#  10]+0.010*[#  14]+0.009*[#  25]+0.002*[#  26]+0.001*[#  59]
          +0.001*[#  63]+0.002*[#  79]+0.001*[#  75]
    |psi|^2 = 0.967
==== e(   7) =   -17.88720 eV ==== 
     psi = 0.227*[#  33]+0.225*[#  53]+0.140*[#  49]+0.120*[#  37]+0.029*[#   1]
          +0.028*[#   5]+0.026*[#   9]+0.023*[#  13]+0.020*[#  41]+0.018*[#  18]
          +0.016*[#  45]+0.014*[#  30]+0.011*[#  26]+0.011*[#  22]+0.006*[#  58]
          +0.006*[#  78]+0.005*[#  66]+0.005*[#  70]+0.004*[#  62]+0.004*[#  77]
          +0.004*[#  74]+0.003*[#  43]+0.003*[#  47]+0.001*[#  29]
    |psi|^2 = 0.952
==== e(   8) =   -17.59122 eV ==== 
     psi = 0.263*[#  37]+0.230*[#  49]+0.103*[#  33]+0.090*[#  41]+0.087*[#  53]
          +0.062*[#  45]+0.021*[#   7]+0.017*[#  11]+0.017*[#  30]+0.016*[#  18]
          +0.015*[#  26]+0.014*[#  22]+0.007*[#   1]+0.005*[#   3]+0.005*[#  15]
          +0.004*[#  13]+0.004*[#  77]+0.002*[#   5]+0.001*[#  58]+0.001*[#  62]
          +0.001*[#  65]+0.002*[#  78]+0.001*[#  74]
    |psi|^2 = 0.974
==== e(   9) =   -17.44968 eV ==== 
     psi = 0.246*[#  57]+0.243*[#  77]+0.109*[#  61]+0.086*[#  73]+0.044*[#  18]
          +0.041*[#  29]+0.041*[#  30]+0.037*[#  17]+0.028*[#  25]+0.026*[#  21]
          +0.021*[#  69]+0.015*[#  22]+0.015*[#  65]+0.012*[#  26]+0.006*[#  74]
          +0.005*[#  62]+0.003*[#  67]+0.003*[#  71]+0.003*[#  58]+0.003*[#  78]
          +0.002*[#  53]+0.002*[#  79]+0.002*[#  49]+0.002*[#  59]
    |psi|^2 = 0.998
==== e(  10) =   -17.39549 eV ==== 
     psi = 0.424*[#  45]+0.374*[#  41]+0.056*[#  49]+0.039*[#  37]+0.021*[#  11]
          +0.016*[#   7]+0.006*[#  15]+0.006*[#   5]+0.005*[#   9]+0.004*[#   3]
          +0.003*[#  66]+0.003*[#  70]+0.002*[#  78]+0.002*[#  58]+0.001*[#  65]
          
    |psi|^2 = 0.969
==== e(  11) =   -17.13533 eV ==== 
     psi = 0.236*[#  73]+0.228*[#  61]+0.127*[#  77]+0.109*[#  57]+0.065*[#  69]
          +0.060*[#  65]+0.019*[#  23]+0.019*[#  27]+0.019*[#   6]+0.016*[#  10]
          +0.012*[#  29]+0.009*[#  17]+0.004*[#  19]+0.003*[#  49]+0.003*[#  25]
          +0.003*[#  31]+0.002*[#  53]+0.002*[#  14]+0.002*[#   2]+0.001*[#  21]
          +0.001*[#  79]
    |psi|^2 = 0.944
==== e(  12) =   -17.02564 eV ==== 
     psi = 0.394*[#  65]+0.382*[#  69]+0.057*[#  61]+0.051*[#  73]+0.021*[#  10]
          +0.017*[#  23]+0.016*[#   6]+0.015*[#  27]+0.009*[#  21]+0.009*[#  25]
          +0.007*[#  19]+0.006*[#  14]+0.006*[#  31]+0.004*[#   2]+0.003*[#  49]
          +0.002*[#  45]
    |psi|^2 = 1.005
==== e(  13) =   -13.68662 eV ==== 
     psi = 0.320*[#   9]+0.303*[#   5]+0.053*[#  43]+0.052*[#  47]+0.045*[#  37]
          +0.044*[#  50]+0.041*[#  49]+0.040*[#  38]+0.022*[#  13]+0.016*[#   1]
          +0.013*[#  53]+0.011*[#  33]+0.008*[#  42]+0.006*[#  46]+0.003*[#  54]
          +0.003*[#  34]+0.002*[#  14]+0.002*[#   2]+0.002*[#   3]+0.002*[#   6]
          +0.002*[#  15]+0.002*[#  10]
    |psi|^2 = 0.997
==== e(  14) =   -13.27241 eV ==== 
     psi = 0.279*[#  25]+0.271*[#  21]+0.061*[#  67]+0.061*[#  71]+0.053*[#  42]
          +0.052*[#  46]+0.051*[#  73]+0.046*[#  61]+0.018*[#  13]+0.017*[#  17]
          +0.016*[#  29]+0.015*[#  77]+0.015*[#  57]+0.005*[#   9]+0.004*[#  53]
          +0.003*[#  55]+0.002*[#   1]+0.002*[#   5]+0.002*[#  51]+0.002*[#  31]
          +0.002*[#   2]+0.002*[#  14]+0.002*[#  19]+0.001*[#  41]
    |psi|^2 = 0.989
==== e(  15) =   -13.16215 eV ==== 
     psi = 0.156*[#  13]+0.134*[#   5]+0.131*[#   1]+0.107*[#   9]+0.058*[#  53]
          +0.052*[#  33]+0.043*[#  74]+0.040*[#  62]+0.031*[#  41]+0.027*[#  45]
          +0.015*[#  21]+0.010*[#  25]+0.009*[#  51]+0.007*[#  39]+0.004*[#  70]
          +0.004*[#  30]+0.004*[#  18]+0.003*[#  66]+0.003*[#  26]+0.003*[#  71]
          +0.003*[#  55]+0.003*[#  43]+0.003*[#  67]+0.003*[#  35]+0.003*[#  11]
          +0.002*[#   7]+0.002*[#  22]+0.002*[#  61]+0.002*[#  54]+0.002*[#  58]
          +0.002*[#  78]+0.002*[#  46]+0.001*[#  73]+0.001*[#  14]+0.001*[#  37]
          +0.001*[#  42]+0.001*[#  47]
    |psi|^2 = 0.885
==== e(  16) =   -12.62273 eV ==== 
     psi = 0.141*[#  17]+0.122*[#  25]+0.120*[#  21]+0.118*[#  29]+0.066*[#  57]
          +0.061*[#  66]+0.061*[#  70]+0.057*[#  77]+0.033*[#  69]+0.028*[#  65]
          +0.011*[#  63]+0.010*[#  75]+0.004*[#  27]+0.004*[#  23]+0.003*[#  59]
          +0.003*[#  79]+0.003*[#  54]+0.002*[#  50]+0.002*[#  30]+0.002*[#   1]
          +0.002*[#  18]+0.001*[#  19]+0.001*[#  55]+0.001*[#  31]+0.001*[#  13]
          
    |psi|^2 = 0.867
==== e(  17) =   -12.47192 eV ==== 
     psi = 0.257*[#   1]+0.237*[#  13]+0.082*[#  33]+0.071*[#  53]+0.038*[#  34]
          +0.036*[#  54]+0.032*[#  49]+0.029*[#  51]+0.028*[#  39]+0.026*[#  37]
          +0.018*[#  42]+0.016*[#   9]+0.013*[#   2]+0.012*[#  46]+0.009*[#  35]
          +0.009*[#  14]+0.009*[#  47]+0.009*[#  55]+0.009*[#  45]+0.007*[#  43]
          +0.006*[#  38]+0.005*[#   5]+0.004*[#   3]+0.004*[#  15]+0.004*[#  25]
          +0.004*[#   6]+0.004*[#  10]+0.003*[#  41]+0.002*[#  50]+0.002*[#   7]
          +0.002*[#  17]+0.001*[#  11]+0.001*[#  66]
    |psi|^2 = 0.998
==== e(  18) =   -11.73105 eV ==== 
     psi = 0.154*[#  29]+0.153*[#  17]+0.056*[#  77]+0.054*[#  57]+0.048*[#   1]
          +0.045*[#   5]+0.043*[#   9]+0.029*[#  50]+0.028*[#  38]+0.025*[#  75]
          +0.024*[#  41]+0.024*[#  61]+0.022*[#  13]+0.022*[#  63]+0.022*[#  45]
          +0.019*[#  73]+0.017*[#  37]+0.014*[#  33]+0.011*[#  49]+0.010*[#  21]
          +0.009*[#  34]+0.009*[#  71]+0.009*[#  46]+0.009*[#  54]+0.009*[#  39]
          +0.008*[#  51]+0.008*[#  79]+0.007*[#  42]+0.007*[#  59]+0.007*[#  65]
          +0.007*[#  67]+0.006*[#  19]+0.006*[#  53]+0.005*[#  43]+0.005*[#  25]
          +0.005*[#  31]+0.004*[#  47]+0.004*[#   2]+0.004*[#  27]+0.004*[#  14]
          +0.004*[#  69]+0.003*[#  35]+0.002*[#   6]+0.002*[#  55]+0.002*[#   3]
          +0.001*[#  10]+0.001*[#  23]
    |psi|^2 = 0.974
==== e(  19) =   -11.68092 eV ==== 
     psi = 0.091*[#   5]+0.088*[#   9]+0.088*[#  13]+0.086*[#   1]+0.081*[#  29]
          +0.068*[#  17]+0.047*[#  41]+0.047*[#  45]+0.033*[#  49]+0.033*[#  37]
          +0.029*[#  77]+0.025*[#  57]+0.024*[#  33]+0.023*[#  53]+0.022*[#  58]
          +0.021*[#  78]+0.016*[#  39]+0.013*[#  70]+0.013*[#  51]+0.013*[#  66]
          +0.010*[#  63]+0.010*[#  30]+0.010*[#  43]+0.010*[#  47]+0.009*[#  61]
          +0.009*[#  73]+0.009*[#  18]+0.009*[#  34]+0.008*[#  75]+0.006*[#  55]
          +0.006*[#  35]+0.006*[#  74]+0.006*[#  54]+0.005*[#  67]+0.004*[#  46]
          +0.004*[#  79]+0.004*[#  22]+0.003*[#  15]+0.003*[#  59]+0.003*[#   3]
          +0.003*[#  62]+0.003*[#  26]+0.003*[#  31]+0.003*[#  38]+0.003*[#  42]
          +0.003*[#  50]+0.002*[#  65]+0.002*[#  71]+0.001*[#  21]+0.001*[#  19]
          +0.001*[#  23]
    |psi|^2 = 1.022
==== e(  20) =   -10.74406 eV ==== 
     psi = 0.127*[#  29]+0.121*[#  25]+0.119*[#  21]+0.112*[#  17]+0.070*[#  65]
          +0.070*[#  69]+0.050*[#  73]+0.048*[#  61]+0.039*[#  77]+0.035*[#  57]
          +0.026*[#  75]+0.025*[#  63]+0.025*[#  74]+0.022*[#  62]+0.015*[#  67]
          +0.015*[#  79]+0.014*[#  71]+0.012*[#  59]+0.009*[#  70]+0.009*[#  31]
          +0.009*[#  38]+0.008*[#  50]+0.008*[#  78]+0.007*[#  19]+0.007*[#  58]
          +0.007*[#  66]+0.006*[#  18]+0.005*[#  42]+0.005*[#  30]+0.004*[#  46]
          +0.004*[#  26]+0.003*[#  34]+0.002*[#  54]+0.002*[#   2]+0.001*[#  22]
          
    |psi|^2 = 1.044
==== e(  21) =    -8.68949 eV ==== 
     psi = 0.159*[#  47]+0.141*[#  43]+0.129*[#  11]+0.107*[#   7]+0.060*[#  51]
          +0.052*[#  15]+0.041*[#  50]+0.032*[#  39]+0.032*[#   3]+0.029*[#  38]
          +0.027*[#  55]+0.013*[#  35]+0.013*[#   6]+0.013*[#  10]+0.011*[#  13]
          +0.012*[#  45]+0.011*[#  19]+0.010*[#  46]+0.010*[#  41]+0.010*[#  14]
          +0.008*[#   1]+0.009*[#  42]+0.008*[#   5]+0.008*[#   9]+0.005*[#  62]
          +0.005*[#   2]+0.004*[#  63]+0.002*[#  23]+0.002*[#  27]+0.002*[#  67]
          +0.002*[#  54]+0.002*[#  59]+0.002*[#  71]+0.002*[#  75]+0.002*[#  49]
          +0.001*[#  18]
    |psi|^2 = 0.985
==== e(  22) =    -8.63316 eV ==== 
     psi = 0.170*[#  67]+0.165*[#  71]+0.159*[#  46]+0.141*[#  42]+0.129*[#  10]
          +0.107*[#   6]+0.104*[#  27]+0.103*[#  23]+0.060*[#  50]+0.052*[#  14]
          +0.036*[#  19]+0.034*[#  63]+0.032*[#  38]+0.032*[#   2]+0.032*[#  75]
          +0.027*[#  31]+0.027*[#  54]+0.014*[#  55]+0.013*[#  34]+0.012*[#  59]
          +0.012*[#  69]+0.011*[#  18]+0.011*[#  29]+0.011*[#  17]+0.011*[#  65]
          +0.011*[#  79]+0.010*[#  21]+0.009*[#  25]+0.006*[#  51]+0.004*[#  62]
          +0.004*[#  53]+0.003*[#  15]+0.002*[#  22]+0.002*[#  26]+0.002*[#  13]
          +0.002*[#  66]+0.002*[#  58]+0.002*[#  70]+0.002*[#  74]+0.002*[#  61]
          +0.001*[#  43]+0.001*[#  73]+0.001*[#   9]+0.001*[#  49]
    |psi|^2 = 1.577
==== e(  23) =    -8.27349 eV ==== 
     psi = 0.049*[#   3]+0.033*[#  47]+0.030*[#  62]+0.023*[#  74]+0.023*[#  26]
          +0.022*[#  66]+0.021*[#  50]+0.020*[#  22]+0.019*[#  51]+0.016*[#  15]
          +0.016*[#  70]+0.015*[#  31]+0.013*[#  27]+0.013*[#  71]+0.013*[#  75]
          +0.012*[#  43]+0.010*[#  42]+0.009*[#  10]+0.008*[#  49]+0.007*[#  35]
          +0.007*[#  79]+0.006*[#   7]+0.006*[#  53]+0.005*[#  37]+0.004*[#  33]
          +0.004*[#  46]+0.003*[#  29]+0.003*[#  41]+0.003*[#  18]+0.003*[#  30]
          +0.002*[#   6]+0.002*[#  39]+0.002*[#  45]+0.002*[#  54]+0.001*[#  55]
          +0.001*[#  65]+0.001*[#  69]
    |psi|^2 = 0.432
==== e(  24) =    -8.23511 eV ==== 
     psi = 0.170*[#  66]+0.165*[#  70]+0.104*[#  26]+0.103*[#  22]+0.088*[#  43]
          +0.077*[#  15]+0.072*[#  39]+0.064*[#   7]+0.060*[#  51]+0.057*[#  55]
          +0.053*[#   3]+0.052*[#  19]+0.040*[#  35]+0.036*[#  18]+0.034*[#  62]
          +0.032*[#  74]+0.027*[#  30]+0.023*[#  63]+0.020*[#  23]+0.017*[#  59]
          +0.014*[#  54]+0.014*[#   1]+0.013*[#  11]+0.013*[#  67]+0.012*[#  58]
          +0.011*[#  75]+0.011*[#  71]+0.011*[#  78]+0.010*[#  27]+0.006*[#  50]
          +0.006*[#  13]+0.004*[#  31]+0.004*[#  79]+0.003*[#  33]+0.003*[#  29]
          +0.003*[#  14]+0.003*[#  17]+0.003*[#  37]+0.002*[#   5]+0.001*[#  41]
          +0.001*[#  42]
    |psi|^2 = 1.449
==== e(  25) =    -7.95166 eV ==== 
     psi = 0.153*[#  74]+0.147*[#  70]+0.123*[#  66]+0.102*[#  26]+0.088*[#  67]
          +0.078*[#  31]+0.077*[#  22]+0.033*[#  62]+0.021*[#  63]+0.020*[#  58]
          +0.019*[#  79]+0.018*[#  71]+0.015*[#  18]+0.014*[#  78]+0.011*[#  27]
          +0.009*[#  57]+0.008*[#  17]+0.006*[#  61]+0.005*[#  19]+0.004*[#  38]
          +0.004*[#   6]+0.004*[#  69]+0.004*[#  42]+0.003*[#  77]+0.003*[#  47]
          +0.002*[#   3]+0.002*[#  23]+0.002*[#  46]+0.002*[#  73]+0.002*[#  10]
          +0.002*[#  75]+0.001*[#  65]+0.001*[#  59]
    |psi|^2 = 0.989
==== e(  26) =    -7.88631 eV ==== 
     psi = 0.088*[#  66]+0.078*[#  30]+0.073*[#  19]+0.068*[#  71]+0.054*[#  75]
          +0.054*[#  47]+0.041*[#  59]+0.041*[#   3]+0.036*[#  79]+0.035*[#  11]
          +0.035*[#  31]+0.029*[#  15]+0.028*[#  23]+0.028*[#  35]+0.025*[#  27]
          +0.024*[#  63]+0.023*[#  39]+0.021*[#  62]+0.019*[#  78]+0.018*[#  70]
          +0.015*[#  29]+0.011*[#  26]+0.008*[#  17]+0.007*[#  13]+0.007*[#  51]
          +0.006*[#  55]+0.006*[#  67]+0.005*[#  18]+0.004*[#  77]+0.004*[#   7]
          +0.004*[#  73]+0.003*[#   1]+0.003*[#  46]+0.002*[#   2]+0.002*[#  22]
          +0.002*[#  74]+0.001*[#  53]+0.001*[#   9]
    |psi|^2 = 0.921
==== e(  27) =    -7.35236 eV ==== 
     psi = 0.157*[#  72]+0.156*[#  68]+0.126*[#  64]+0.125*[#  76]+0.114*[#  24]
          +0.110*[#  62]+0.109*[#  28]+0.055*[#  60]+0.052*[#  20]+0.048*[#  80]
          +0.045*[#  32]+0.036*[#  38]+0.031*[#  50]+0.029*[#  66]+0.026*[#  22]
          +0.023*[#  30]+0.023*[#  74]+0.010*[#   6]+0.009*[#   2]+0.009*[#  70]
          +0.006*[#  18]+0.003*[#  14]+0.003*[#  26]+0.003*[#  78]+0.002*[#  56]
          +0.001*[#  52]
    |psi|^2 = 1.313
==== e(  28) =    -7.17940 eV ==== 
     psi = 0.114*[#  39]+0.105*[#  51]+0.103*[#  55]+0.096*[#  35]+0.073*[#  18]
          +0.068*[#  70]+0.057*[#   3]+0.057*[#  47]+0.056*[#  15]+0.054*[#  74]
          +0.054*[#  46]+0.052*[#  43]+0.041*[#  11]+0.041*[#  58]+0.041*[#   2]
          +0.036*[#  78]+0.035*[#  10]+0.035*[#  30]+0.032*[#   7]+0.029*[#  14]
          +0.028*[#  22]+0.028*[#  34]+0.025*[#  26]+0.024*[#  62]+0.023*[#  38]
          +0.014*[#   5]+0.014*[#   9]+0.014*[#  49]+0.013*[#  37]+0.010*[#  59]
          +0.008*[#  79]+0.007*[#  50]+0.006*[#  54]+0.006*[#  66]+0.005*[#  31]
          +0.004*[#   6]+0.003*[#  33]+0.003*[#  53]+0.003*[#  63]+0.002*[#   1]
          +0.002*[#  71]+0.002*[#  13]+0.001*[#  19]
    |psi|^2 = 1.432
==== e(  29) =    -6.91626 eV ==== 
     psi = 0.147*[#  63]+0.112*[#  59]+0.103*[#  75]+0.071*[#  79]+0.067*[#  18]
          +0.041*[#  30]+0.041*[#  66]+0.038*[#  19]+0.034*[#  31]+0.031*[#  67]
          +0.026*[#  71]+0.026*[#  51]+0.021*[#  27]+0.019*[#  23]+0.019*[#  54]
          +0.018*[#  70]+0.018*[#  39]+0.017*[#  25]+0.016*[#  61]+0.015*[#  21]
          +0.012*[#  73]+0.009*[#  34]+0.008*[#   2]+0.008*[#  38]+0.007*[#  57]
          +0.007*[#  42]+0.007*[#  14]+0.006*[#   6]+0.005*[#  17]+0.005*[#  50]
          +0.005*[#   9]+0.005*[#  58]+0.003*[#  29]+0.003*[#  26]+0.003*[#  77]
          +0.002*[#  74]+0.002*[#  22]+0.002*[#  62]+0.001*[#  33]+0.001*[#  45]
          +0.001*[#  53]
    |psi|^2 = 0.990
==== e(  30) =    -6.89913 eV ==== 
     psi = 0.230*[#  60]+0.221*[#  80]+0.147*[#  62]+0.127*[#  20]+0.123*[#  32]
          +0.121*[#  76]+0.112*[#  58]+0.107*[#  64]+0.103*[#  74]+0.071*[#  78]
          +0.038*[#  18]+0.034*[#  30]+0.031*[#  66]+0.026*[#  70]+0.026*[#  50]
          +0.023*[#  28]+0.021*[#  26]+0.019*[#  22]+0.018*[#  24]+0.018*[#  38]
          +0.007*[#  72]+0.007*[#  68]+0.002*[#  56]
    |psi|^2 = 1.639
==== e(  31) =    -6.88509 eV ==== 
     psi = 0.124*[#  44]+0.119*[#  52]+0.118*[#  48]+0.118*[#  40]+0.105*[#  12]
          +0.103*[#   8]+0.085*[#  56]+0.077*[#  36]+0.071*[#  16]+0.065*[#   4]
          +0.003*[#  80]+0.002*[#  32]
    |psi|^2 = 0.992
==== e(  32) =    -6.63700 eV ==== 
     psi = 0.082*[#  39]+0.057*[#  51]+0.037*[#  79]+0.024*[#  15]+0.021*[#  43]
          +0.019*[#  75]+0.016*[#  47]+0.016*[#   3]+0.011*[#  33]+0.010*[#  53]
          +0.009*[#  31]+0.009*[#   9]+0.008*[#   5]+0.008*[#  71]+0.007*[#  23]
          +0.006*[#  19]+0.006*[#  27]+0.005*[#  73]+0.004*[#  45]+0.004*[#  41]
          +0.003*[#   7]+0.003*[#  67]+0.003*[#  35]+0.003*[#  21]+0.003*[#  25]
          +0.002*[#  11]+0.002*[#  59]+0.002*[#  63]+0.002*[#  77]+0.001*[#  55]
          +0.001*[#  61]+0.001*[#  13]
    |psi|^2 = 0.391
==== e(  33) =    -6.58621 eV ==== 
     psi = 0.243*[#  56]+0.236*[#  36]+0.139*[#   4]+0.137*[#  16]+0.091*[#  40]
          +0.080*[#  52]+0.019*[#   8]+0.013*[#  12]+0.011*[#  80]+0.006*[#  44]
          +0.004*[#  32]+0.004*[#  48]+0.003*[#  60]
    |psi|^2 = 0.989
==== e(  34) =    -6.50610 eV ==== 
     psi = 0.096*[#  75]+0.059*[#  63]+0.029*[#  51]+0.026*[#  71]+0.021*[#  55]
          +0.017*[#  39]+0.014*[#  19]+0.009*[#  21]+0.009*[#  77]+0.008*[#  31]
          +0.008*[#  57]+0.007*[#  65]+0.006*[#  15]+0.004*[#  35]+0.004*[#   3]
          +0.004*[#  79]+0.003*[#  11]+0.003*[#  69]+0.003*[#  25]+0.002*[#   7]
          +0.002*[#  41]+0.002*[#  67]+0.002*[#  13]+0.002*[#  23]+0.002*[#  43]
          +0.002*[#  37]+0.001*[#  33]+0.001*[#  45]+0.001*[#  53]
    |psi|^2 = 0.351
==== e(  35) =    -6.49354 eV ==== 
     psi = 0.285*[#  60]+0.278*[#  80]+0.092*[#  32]+0.092*[#  20]+0.083*[#  46]
          +0.077*[#  72]+0.071*[#  70]+0.068*[#  42]+0.065*[#  68]+0.064*[#  58]
          +0.053*[#  78]+0.044*[#  66]+0.041*[#  24]+0.040*[#  74]+0.031*[#  28]
          +0.030*[#  30]+0.024*[#  18]+0.022*[#  62]+0.021*[#  50]+0.021*[#  10]
          +0.021*[#   6]+0.015*[#  54]+0.014*[#  14]+0.013*[#  38]+0.010*[#  22]
          +0.008*[#  26]+0.007*[#  34]+0.007*[#   2]+0.006*[#  64]+0.005*[#  36]
          +0.003*[#   4]+0.003*[#  56]+0.002*[#  76]+0.002*[#  16]+0.002*[#  52]
          
    |psi|^2 = 1.621
==== e(  36) =    -6.28693 eV ==== 
     psi = 0.096*[#  74]+0.074*[#  39]+0.059*[#  62]+0.052*[#  51]+0.047*[#  63]
          +0.042*[#  35]+0.035*[#  75]+0.029*[#  50]+0.026*[#  70]+0.022*[#  67]
          +0.021*[#  54]+0.018*[#   7]+0.017*[#  38]+0.015*[#  55]+0.014*[#  18]
          +0.011*[#  11]+0.010*[#  47]+0.009*[#   5]+0.009*[#  23]+0.008*[#  41]
          +0.008*[#  45]+0.008*[#  30]+0.007*[#  43]+0.006*[#  25]+0.006*[#  14]
          +0.004*[#  31]+0.004*[#  34]+0.004*[#   2]+0.004*[#  77]+0.004*[#  78]
          +0.003*[#  57]+0.003*[#  49]+0.003*[#  10]+0.003*[#  59]+0.003*[#   9]
          +0.002*[#   6]+0.002*[#  21]+0.002*[#  66]+0.002*[#  22]+0.002*[#  71]
          +0.002*[#  42]+0.002*[#  79]+0.002*[#  69]+0.001*[#  61]+0.001*[#  27]
          +0.001*[#  58]
    |psi|^2 = 0.707
==== e(  37) =    -6.20023 eV ==== 
     psi = 0.256*[#  36]+0.239*[#  56]+0.091*[#  44]+0.088*[#   4]+0.080*[#  48]
          +0.076*[#  16]+0.060*[#  12]+0.056*[#   8]+0.014*[#  52]+0.012*[#  40]
          +0.004*[#  60]+0.003*[#  76]+0.002*[#  64]+0.002*[#  24]+0.001*[#  80]
          
    |psi|^2 = 0.987
==== e(  38) =    -6.16131 eV ==== 
     psi = 0.095*[#  43]+0.088*[#  55]+0.070*[#  47]+0.066*[#  35]+0.060*[#   7]
          +0.056*[#  11]+0.044*[#   3]+0.026*[#  15]+0.023*[#  39]+0.021*[#  59]
          +0.017*[#  79]+0.016*[#  63]+0.015*[#  75]+0.014*[#  27]+0.013*[#  37]
          +0.011*[#  23]+0.010*[#  49]+0.009*[#  67]+0.008*[#   5]+0.006*[#   9]
          +0.005*[#  71]+0.005*[#  21]+0.003*[#  31]+0.003*[#  19]+0.003*[#  69]
          +0.003*[#  25]+0.003*[#  51]+0.002*[#  53]+0.002*[#  65]+0.001*[#  45]
          
    |psi|^2 = 0.703
==== e(  39) =    -5.99206 eV ==== 
     psi = 0.279*[#  76]+0.255*[#  64]+0.123*[#  80]+0.105*[#  60]+0.087*[#  28]
          +0.080*[#  24]+0.076*[#  54]+0.061*[#  34]+0.025*[#  50]+0.022*[#  32]
          +0.020*[#  38]+0.017*[#  20]+0.013*[#  66]+0.012*[#  70]+0.012*[#  74]
          +0.012*[#  58]+0.009*[#  78]+0.008*[#  26]+0.008*[#  22]+0.007*[#  62]
          +0.006*[#  10]+0.006*[#  56]+0.006*[#  46]+0.005*[#  42]+0.004*[#   6]
          +0.004*[#  16]+0.002*[#  36]+0.002*[#  72]+0.002*[#  68]+0.001*[#  18]
          
    |psi|^2 = 1.273
==== e(  40) =    -5.95786 eV ==== 
     psi = 0.095*[#  42]+0.088*[#  54]+0.070*[#  46]+0.068*[#  63]+0.066*[#  34]
          +0.061*[#  75]+0.060*[#   6]+0.056*[#  59]+0.056*[#  10]+0.052*[#  79]
          +0.044*[#   2]+0.028*[#  55]+0.026*[#  14]+0.025*[#  47]+0.024*[#  15]
          +0.023*[#  38]+0.022*[#  43]+0.021*[#  58]+0.021*[#  23]+0.018*[#  11]
          +0.017*[#  27]+0.017*[#  78]+0.016*[#  62]+0.015*[#  74]+0.014*[#  26]
          +0.013*[#  71]+0.011*[#  22]+0.009*[#  66]+0.009*[#  35]+0.008*[#  51]
          +0.008*[#   7]+0.008*[#  67]+0.007*[#  49]+0.007*[#  65]+0.006*[#  39]
          +0.006*[#  25]+0.005*[#  70]+0.005*[#  69]+0.004*[#  21]+0.003*[#  30]
          +0.003*[#  18]+0.003*[#  50]+0.002*[#   9]+0.002*[#  13]+0.002*[#   3]
          +0.001*[#  77]+0.001*[#  37]
    |psi|^2 = 1.131
==== e(  41) =    -5.79457 eV ==== 
     psi = 0.174*[#  34]+0.098*[#  54]+0.087*[#  58]+0.059*[#  35]+0.051*[#  51]
          +0.039*[#  23]+0.038*[#  39]+0.037*[#  67]+0.036*[#  59]+0.036*[#  71]
          +0.030*[#  47]+0.030*[#  55]+0.027*[#  19]+0.027*[#  75]+0.024*[#   3]
          +0.022*[#  62]+0.016*[#  27]+0.012*[#  42]+0.011*[#  10]+0.010*[#  74]
          +0.010*[#   6]+0.010*[#   7]+0.010*[#  61]+0.009*[#  46]+0.007*[#  70]
          +0.007*[#  79]+0.006*[#  78]+0.006*[#   2]+0.005*[#  31]+0.005*[#  14]
          +0.005*[#  15]+0.005*[#  37]+0.004*[#  21]+0.004*[#  63]+0.004*[#  22]
          +0.004*[#  41]+0.003*[#   1]+0.003*[#   5]+0.003*[#  73]+0.002*[#  38]
          +0.002*[#  65]+0.002*[#  33]+0.002*[#  13]+0.001*[#  49]+0.001*[#  53]
          +0.001*[#  45]+0.001*[#  50]
    |psi|^2 = 0.986
==== e(  42) =    -5.69390 eV ==== 
     psi = 0.059*[#  34]+0.056*[#  79]+0.051*[#  50]+0.048*[#  67]+0.043*[#  63]
          +0.040*[#  31]+0.039*[#  71]+0.039*[#  22]+0.038*[#  38]+0.037*[#  66]
          +0.036*[#  58]+0.036*[#  70]+0.030*[#  46]+0.030*[#  54]+0.029*[#  27]
          +0.027*[#  18]+0.027*[#  74]+0.024*[#   2]+0.017*[#  73]+0.017*[#  15]
          +0.017*[#  19]+0.017*[#  59]+0.016*[#  39]+0.016*[#  26]+0.014*[#  55]
          +0.012*[#  23]+0.011*[#  75]+0.010*[#  35]+0.010*[#   6]+0.010*[#  51]
          +0.009*[#  43]+0.009*[#  25]+0.009*[#   3]+0.007*[#  13]+0.007*[#  61]
          +0.007*[#  78]+0.005*[#  30]+0.005*[#  11]+0.005*[#  14]+0.004*[#  62]
          +0.003*[#   1]+0.003*[#  45]+0.002*[#  49]+0.002*[#   9]+0.002*[#  21]
          +0.001*[#  37]+0.001*[#  41]
    |psi|^2 = 0.939
==== e(  43) =    -5.65947 eV ==== 
     psi = 0.292*[#  40]+0.275*[#  52]+0.136*[#  78]+0.102*[#  54]+0.099*[#   8]
          +0.097*[#  12]+0.093*[#  36]+0.093*[#  56]+0.081*[#  34]+0.041*[#  58]
          +0.033*[#  66]+0.031*[#  62]+0.025*[#  74]+0.016*[#  46]+0.015*[#   4]
          +0.013*[#  70]+0.013*[#  16]+0.012*[#  26]+0.010*[#   6]+0.007*[#  22]
          +0.006*[#  10]+0.006*[#   2]+0.004*[#  68]+0.004*[#  14]+0.003*[#  64]
          +0.002*[#  42]+0.002*[#  44]+0.002*[#  38]
    |psi|^2 = 1.515
==== e(  44) =    -5.56966 eV ==== 
     psi = 0.106*[#  63]+0.106*[#  75]+0.080*[#  59]+0.056*[#  78]+0.048*[#  79]
          +0.048*[#  66]+0.043*[#  62]+0.040*[#  30]+0.039*[#  70]+0.029*[#  26]
          +0.026*[#  67]+0.025*[#  51]+0.023*[#  71]+0.017*[#  14]+0.017*[#  18]
          +0.017*[#  58]+0.016*[#  38]+0.015*[#  55]+0.014*[#  54]+0.013*[#  19]
          +0.012*[#  22]+0.012*[#  31]+0.011*[#  74]+0.010*[#  34]+0.010*[#  50]
          +0.009*[#  42]+0.009*[#  27]+0.009*[#   2]+0.008*[#  35]+0.006*[#  21]
          +0.005*[#  25]+0.005*[#  10]+0.005*[#  39]+0.004*[#  61]+0.004*[#  23]
          +0.004*[#  73]+0.003*[#  47]+0.002*[#  17]+0.002*[#  69]+0.002*[#  53]
          +0.001*[#  29]+0.001*[#  57]+0.001*[#  77]
    |psi|^2 = 0.917
==== e(  45) =    -5.24130 eV ==== 
     psi = 0.316*[#  64]+0.275*[#  76]+0.208*[#  72]+0.142*[#  68]+0.016*[#  60]
          +0.012*[#  80]+0.005*[#  40]+0.002*[#  44]+0.001*[#  32]+0.001*[#  20]
          
    |psi|^2 = 0.982
==== e(  46) =    -5.10742 eV ==== 
     psi = 0.483*[#  68]+0.419*[#  72]+0.017*[#  60]+0.015*[#  80]+0.014*[#  40]
          +0.010*[#  24]+0.009*[#  28]+0.007*[#  44]+0.005*[#  48]+0.004*[#  52]
          +0.003*[#  76]+0.001*[#  12]
    |psi|^2 = 0.989
==== e(  47) =    -5.09689 eV ==== 
     psi = 0.105*[#  55]+0.097*[#  51]+0.085*[#  39]+0.074*[#  35]+0.034*[#  15]
          +0.033*[#  13]+0.027*[#   3]+0.025*[#   1]+0.019*[#  47]+0.015*[#  71]
          +0.014*[#   5]+0.010*[#  59]+0.009*[#   9]+0.009*[#  43]+0.008*[#  63]
          +0.006*[#  45]+0.005*[#  29]+0.005*[#  31]+0.004*[#  21]+0.004*[#  19]
          +0.003*[#  41]+0.002*[#  65]+0.002*[#  23]+0.001*[#  33]+0.001*[#  53]
          +0.001*[#   7]+0.001*[#  67]+0.001*[#  69]
    |psi|^2 = 0.606
==== e(  48) =    -4.85461 eV ==== 
     psi = 0.310*[#  52]+0.254*[#  40]+0.240*[#  44]+0.119*[#  48]+0.023*[#  68]
          +0.016*[#  56]+0.008*[#  36]+0.006*[#  72]+0.002*[#  76]+0.001*[#  64]
          
    |psi|^2 = 0.982
==== e(  49) =    -4.73940 eV ==== 
     psi = 0.150*[#  35]+0.080*[#  78]+0.079*[#  39]+0.060*[#  50]+0.054*[#  43]
          +0.048*[#  58]+0.048*[#  74]+0.035*[#  59]+0.035*[#  55]+0.034*[#  63]
          +0.027*[#  75]+0.025*[#  62]+0.025*[#   3]+0.024*[#   9]+0.021*[#  10]
          +0.019*[#   1]+0.018*[#  47]+0.016*[#  79]+0.015*[#  17]+0.014*[#  29]
          +0.013*[#   2]+0.012*[#  19]+0.011*[#  31]+0.011*[#  25]+0.011*[#  46]
          +0.009*[#   6]+0.008*[#  21]+0.008*[#  67]+0.008*[#  71]+0.008*[#  54]
          +0.007*[#  11]+0.007*[#  41]+0.006*[#  18]+0.005*[#  26]+0.004*[#  30]
          +0.004*[#  38]+0.003*[#   7]+0.003*[#  66]+0.002*[#  13]+0.002*[#  22]
          +0.002*[#  70]+0.002*[#   5]+0.002*[#  65]+0.002*[#  45]+0.002*[#  15]
          +0.002*[#  69]+0.001*[#  23]
    |psi|^2 = 0.985
==== e(  50) =    -4.68257 eV ==== 
     psi = 0.542*[#  48]+0.393*[#  44]+0.150*[#  34]+0.079*[#  38]+0.054*[#  42]
          +0.035*[#  58]+0.035*[#  54]+0.034*[#  62]+0.027*[#  74]+0.025*[#   2]
          +0.018*[#  46]+0.016*[#  78]+0.013*[#  36]+0.012*[#  18]+0.012*[#  56]
          +0.011*[#  30]+0.010*[#   8]+0.009*[#  12]+0.008*[#  66]+0.008*[#  70]
          +0.007*[#  40]+0.007*[#  10]+0.003*[#   6]+0.002*[#  14]+0.001*[#  22]
          
    |psi|^2 = 1.516
==== e(  51) =    -4.60222 eV ==== 
     psi = 0.088*[#  55]+0.060*[#  75]+0.045*[#  47]+0.043*[#  51]+0.042*[#  79]
          +0.038*[#  35]+0.033*[#  43]+0.026*[#  21]+0.022*[#   5]+0.021*[#  15]
          +0.019*[#  63]+0.016*[#  17]+0.015*[#  23]+0.015*[#  31]+0.015*[#  11]
          +0.015*[#   9]+0.014*[#  71]+0.013*[#  39]+0.013*[#   7]+0.009*[#  25]
          +0.009*[#  29]+0.006*[#  45]+0.005*[#  69]+0.004*[#  59]+0.004*[#   3]
          +0.004*[#  19]+0.003*[#  41]+0.002*[#  13]+0.001*[#  27]+0.001*[#  53]
          
    |psi|^2 = 0.602
==== e(  52) =    -4.41985 eV ==== 
     psi = 0.076*[#  71]+0.074*[#  67]+0.057*[#  25]+0.047*[#  21]+0.037*[#  27]
          +0.034*[#  23]+0.029*[#  63]+0.027*[#  59]+0.023*[#  75]+0.017*[#  79]
          +0.010*[#  51]+0.009*[#  47]+0.008*[#   5]+0.008*[#  65]+0.007*[#  55]
          +0.007*[#  69]+0.006*[#  19]+0.005*[#  29]+0.003*[#   7]+0.003*[#  35]
          +0.003*[#  31]+0.002*[#  43]+0.001*[#  57]+0.001*[#  17]+0.001*[#  77]
          
    |psi|^2 = 0.501
==== e(  53) =    -4.24185 eV ==== 
     psi = 0.154*[#  42]+0.114*[#  46]+0.112*[#  54]+0.111*[#  34]+0.067*[#  35]
          +0.059*[#   1]+0.051*[#  13]+0.045*[#  55]+0.025*[#  59]+0.023*[#  50]
          +0.022*[#  11]+0.022*[#   9]+0.017*[#   7]+0.013*[#  63]+0.012*[#  17]
          +0.011*[#  25]+0.011*[#  58]+0.011*[#  74]+0.011*[#  67]+0.010*[#   3]
          +0.010*[#  15]+0.009*[#   5]+0.009*[#  51]+0.008*[#  71]+0.008*[#  70]
          +0.005*[#  19]+0.004*[#  39]+0.004*[#  38]+0.003*[#  18]+0.002*[#  75]
          +0.002*[#  26]+0.001*[#  79]+0.001*[#   2]+0.001*[#  43]+0.001*[#  30]
          
    |psi|^2 = 0.978
==== e(  54) =    -4.11785 eV ==== 
     psi = 0.116*[#  35]+0.115*[#  55]+0.067*[#  34]+0.057*[#   5]+0.045*[#  54]
          +0.044*[#   9]+0.025*[#  58]+0.022*[#  10]+0.021*[#  13]+0.018*[#   7]
          +0.017*[#   6]+0.016*[#   3]+0.014*[#   1]+0.014*[#  15]+0.013*[#  62]
          +0.013*[#  11]+0.011*[#  66]+0.010*[#   2]+0.010*[#  14]+0.009*[#  25]
          +0.009*[#  50]+0.008*[#  70]+0.007*[#  47]+0.007*[#  67]+0.006*[#  79]
          +0.005*[#  18]+0.004*[#  38]+0.003*[#  43]+0.003*[#  59]+0.002*[#  51]
          +0.002*[#  74]+0.002*[#  37]+0.002*[#  63]+0.002*[#  39]+0.002*[#  49]
          +0.002*[#  71]+0.001*[#  27]+0.001*[#  78]+0.001*[#  17]+0.001*[#  29]
          +0.001*[#  42]
    |psi|^2 = 0.737
==== e(  55) =    -4.04335 eV ==== 
     psi = 0.215*[#  59]+0.174*[#  38]+0.156*[#  79]+0.148*[#  50]+0.082*[#  46]
          +0.077*[#  17]+0.061*[#  29]+0.055*[#  42]+0.031*[#  19]+0.025*[#  31]
          +0.022*[#  75]+0.014*[#  63]+0.011*[#  74]+0.005*[#  71]+0.005*[#  62]
          +0.005*[#  70]+0.004*[#  66]+0.004*[#  13]+0.003*[#  11]+0.003*[#  25]
          +0.003*[#  67]+0.003*[#  34]+0.003*[#   1]+0.003*[#  27]+0.002*[#   2]
          +0.002*[#  35]+0.002*[#   7]+0.002*[#  14]+0.002*[#  55]+0.001*[#  65]
          +0.001*[#   9]+0.001*[#  22]+0.001*[#  69]
    |psi|^2 = 1.132
==== e(  56) =    -3.99141 eV ==== 
     psi = 0.237*[#  79]+0.134*[#  59]+0.116*[#  34]+0.115*[#  54]+0.045*[#  29]
          +0.037*[#  31]+0.036*[#  21]+0.031*[#  25]+0.022*[#  19]+0.021*[#  17]
          +0.021*[#  23]+0.018*[#   6]+0.016*[#   2]+0.014*[#  14]+0.013*[#  27]
          +0.013*[#  10]+0.008*[#  55]+0.007*[#  46]+0.007*[#  66]+0.006*[#  78]
          +0.006*[#  15]+0.004*[#  71]+0.004*[#  67]+0.003*[#  35]+0.003*[#  42]
          +0.003*[#  58]+0.002*[#  61]+0.002*[#  75]+0.002*[#   9]+0.002*[#  50]
          +0.002*[#  62]+0.002*[#   5]+0.002*[#  38]+0.002*[#  70]+0.002*[#  73]
          +0.001*[#  11]+0.001*[#  26]+0.001*[#  13]+0.001*[#  69]+0.001*[#  65]
          
    |psi|^2 = 0.971
==== e(  57) =    -2.24850 eV ==== 
     psi = 0.175*[#  11]+0.174*[#   7]+0.108*[#  47]+0.100*[#  43]+0.054*[#  14]
          +0.039*[#  15]+0.038*[#   2]+0.034*[#   3]+0.025*[#   9]+0.023*[#  35]
          +0.022*[#   5]+0.019*[#  55]+0.019*[#  10]+0.013*[#  50]+0.013*[#   6]
          +0.010*[#  38]+0.008*[#  41]+0.007*[#  45]+0.006*[#  58]+0.004*[#  71]
          +0.004*[#  17]+0.003*[#  46]+0.003*[#  51]+0.003*[#  63]+0.003*[#  27]
          +0.003*[#  25]+0.003*[#  49]+0.003*[#  19]+0.003*[#  37]+0.003*[#  53]
          +0.002*[#  26]+0.002*[#  42]+0.002*[#  74]+0.001*[#  62]+0.001*[#  30]
          +0.001*[#  33]
    |psi|^2 = 0.937
==== e(  58) =    -1.87491 eV ==== 
     psi = 0.175*[#  10]+0.174*[#   6]+0.108*[#  46]+0.100*[#  42]+0.054*[#  15]
          +0.039*[#  14]+0.036*[#  53]+0.034*[#   3]+0.034*[#   2]+0.028*[#  33]
          +0.024*[#   1]+0.023*[#  34]+0.021*[#  27]+0.019*[#  11]+0.019*[#  13]
          +0.019*[#  54]+0.016*[#  45]+0.016*[#  35]+0.014*[#  41]+0.011*[#  71]
          +0.009*[#   7]+0.007*[#  23]+0.006*[#  67]+0.006*[#  31]+0.005*[#  49]
          +0.005*[#  25]+0.005*[#  55]+0.004*[#  70]+0.003*[#  50]+0.003*[#  62]
          +0.003*[#  26]+0.003*[#  37]+0.003*[#  18]+0.003*[#  59]+0.002*[#  79]
          +0.002*[#  73]+0.001*[#  47]+0.001*[#  57]
    |psi|^2 = 1.042
==== e(  59) =    -1.58290 eV ==== 
     psi = 0.176*[#  14]+0.150*[#   2]+0.079*[#  54]+0.076*[#  34]+0.074*[#  19]
          +0.048*[#  31]+0.043*[#  10]+0.036*[#   6]+0.031*[#  57]+0.024*[#  77]
          +0.022*[#  17]+0.022*[#  23]+0.020*[#  65]+0.015*[#  27]+0.015*[#  69]
          +0.015*[#  29]+0.013*[#  15]+0.012*[#   3]+0.013*[#  49]+0.012*[#  18]
          +0.010*[#  79]+0.009*[#  51]+0.008*[#   5]+0.007*[#  41]+0.007*[#  43]
          +0.007*[#  59]+0.007*[#  55]+0.005*[#  30]+0.005*[#  42]+0.004*[#  61]
          +0.004*[#  11]+0.003*[#  73]+0.003*[#   1]+0.002*[#  45]+0.002*[#   7]
          +0.002*[#  33]+0.002*[#  70]+0.002*[#  37]+0.001*[#  53]+0.001*[#  74]
          
    |psi|^2 = 0.992
==== e(  60) =    -1.48742 eV ==== 
     psi = 0.075*[#  23]+0.069*[#  27]+0.054*[#  14]+0.041*[#  67]+0.034*[#   2]
          +0.033*[#   7]+0.026*[#  71]+0.021*[#  26]+0.021*[#  39]+0.020*[#   3]
          +0.019*[#  10]+0.019*[#  55]+0.018*[#  37]+0.017*[#  15]+0.016*[#  34]
          +0.014*[#  13]+0.013*[#  59]+0.013*[#  45]+0.013*[#  21]+0.012*[#  35]
          +0.011*[#  70]+0.010*[#  57]+0.009*[#   6]+0.007*[#  22]+0.007*[#  69]
          +0.006*[#  31]+0.006*[#  49]+0.006*[#  66]+0.006*[#  25]+0.006*[#  30]
          +0.005*[#  43]+0.005*[#  54]+0.004*[#   9]+0.003*[#  47]+0.003*[#  58]
          +0.002*[#  41]+0.002*[#  53]+0.002*[#  78]+0.002*[#  65]+0.002*[#  17]
          +0.001*[#  79]+0.001*[#  46]
    |psi|^2 = 0.658
==== e(  61) =    -1.38024 eV ==== 
     psi = 0.162*[#  30]+0.100*[#   3]+0.092*[#  14]+0.064*[#  38]+0.039*[#   6]
          +0.032*[#  34]+0.031*[#  43]+0.029*[#  51]+0.026*[#  23]+0.022*[#  77]
          +0.019*[#  79]+0.019*[#  26]+0.019*[#  71]+0.017*[#   5]+0.016*[#  27]
          +0.016*[#  11]+0.015*[#   7]+0.014*[#   2]+0.014*[#  46]+0.013*[#   1]
          +0.011*[#  78]+0.011*[#  22]+0.011*[#  31]+0.010*[#  41]+0.009*[#  33]
          +0.008*[#  53]+0.008*[#  18]+0.007*[#  10]+0.006*[#  55]+0.006*[#  29]
          +0.005*[#  70]+0.005*[#  15]+0.005*[#  49]+0.004*[#  67]+0.003*[#  25]
          +0.003*[#  50]+0.003*[#  66]+0.003*[#  47]+0.003*[#  65]+0.003*[#  63]
          +0.002*[#  62]+0.003*[#  69]+0.002*[#  39]+0.002*[#  75]+0.001*[#  45]
          +0.001*[#  61]
    |psi|^2 = 0.897
==== e(  62) =    -1.35320 eV ==== 
     psi = 0.118*[#  15]+0.100*[#   2]+0.045*[#  23]+0.031*[#  35]+0.031*[#  42]
          +0.030*[#  27]+0.029*[#  50]+0.027*[#  67]+0.026*[#  22]+0.024*[#   7]
          +0.021*[#  47]+0.019*[#  78]+0.019*[#  70]+0.018*[#  19]+0.017*[#  33]
          +0.016*[#  26]+0.016*[#  55]+0.016*[#  10]+0.015*[#   6]+0.015*[#  63]
          +0.015*[#   9]+0.014*[#  39]+0.013*[#  59]+0.011*[#  43]+0.011*[#  30]
          +0.010*[#  11]+0.010*[#  51]+0.006*[#  54]+0.006*[#  73]+0.005*[#  21]
          +0.005*[#  61]+0.005*[#  14]+0.005*[#  13]+0.005*[#  31]+0.004*[#  71]
          +0.004*[#   3]+0.004*[#  66]+0.003*[#  46]+0.003*[#  49]+0.003*[#  62]
          +0.003*[#  79]+0.002*[#  53]+0.002*[#  38]+0.002*[#  74]+0.002*[#  37]
          +0.002*[#  57]+0.002*[#  17]+0.002*[#  75]+0.002*[#   5]+0.001*[#  45]
          
    |psi|^2 = 0.795
==== e(  63) =    -1.10173 eV ==== 
     psi = 0.199*[#   2]+0.061*[#  18]+0.046*[#  50]+0.032*[#   3]+0.028*[#  15]
          +0.027*[#  42]+0.025*[#  31]+0.019*[#  26]+0.015*[#  69]+0.013*[#  19]
          +0.013*[#  65]+0.013*[#  54]+0.012*[#  23]+0.012*[#  77]+0.011*[#  61]
          +0.010*[#  25]+0.010*[#  57]+0.010*[#  73]+0.010*[#   6]+0.010*[#  10]
          +0.009*[#  79]+0.008*[#  34]+0.008*[#  59]+0.007*[#  53]+0.007*[#  75]
          +0.007*[#  27]+0.006*[#  33]+0.006*[#  63]+0.006*[#  21]+0.006*[#  29]
          +0.004*[#  30]+0.004*[#  17]+0.004*[#  49]+0.004*[#  38]+0.004*[#  39]
          +0.004*[#  62]+0.003*[#  13]+0.003*[#  58]+0.003*[#   1]+0.003*[#  66]
          +0.003*[#  74]+0.003*[#  14]+0.002*[#  37]+0.002*[#  43]+0.002*[#  78]
          +0.001*[#  71]
    |psi|^2 = 0.701
==== e(  64) =    -1.02069 eV ==== 
     psi = 0.118*[#  14]+0.073*[#   3]+0.045*[#  22]+0.031*[#  34]+0.030*[#  26]
          +0.029*[#  39]+0.027*[#  66]+0.024*[#   6]+0.021*[#  46]+0.020*[#  15]
          +0.018*[#  51]+0.018*[#  18]+0.017*[#  37]+0.016*[#  54]+0.015*[#  62]
          +0.014*[#  38]+0.013*[#  67]+0.013*[#  65]+0.013*[#  58]+0.011*[#  42]
          +0.011*[#  21]+0.010*[#  10]+0.010*[#  50]+0.008*[#  69]+0.008*[#  73]
          +0.007*[#  23]+0.007*[#  53]+0.006*[#  61]+0.006*[#  71]+0.006*[#  49]
          +0.005*[#   7]+0.005*[#  30]+0.004*[#  25]+0.004*[#  33]+0.004*[#  35]
          +0.004*[#  70]+0.004*[#  45]+0.004*[#   1]+0.004*[#  63]+0.004*[#   2]
          +0.003*[#  55]+0.003*[#  27]+0.003*[#  41]+0.003*[#  78]+0.002*[#  13]
          +0.002*[#   9]+0.002*[#  19]+0.002*[#  43]+0.002*[#  74]+0.002*[#  77]
          +0.001*[#  75]
    |psi|^2 = 0.711
==== e(  65) =    -0.81655 eV ==== 
     psi = 0.129*[#  31]+0.097*[#  19]+0.068*[#  22]+0.067*[#  18]+0.053*[#  26]
          +0.045*[#  23]+0.037*[#  27]+0.035*[#  30]+0.033*[#  78]+0.026*[#  70]
          +0.025*[#  58]+0.024*[#  67]+0.023*[#  71]+0.022*[#   6]+0.020*[#  57]
          +0.020*[#  66]+0.018*[#  77]+0.015*[#  73]+0.014*[#  61]+0.012*[#  11]
          +0.011*[#   2]+0.011*[#  54]+0.011*[#  75]+0.010*[#  15]+0.010*[#  47]
          +0.008*[#  10]+0.007*[#  51]+0.007*[#  29]+0.007*[#  38]+0.006*[#  21]
          +0.005*[#  14]+0.005*[#  42]+0.004*[#  25]+0.003*[#  17]+0.003*[#  13]
          +0.003*[#  63]+0.002*[#  46]+0.002*[#  55]
    |psi|^2 = 0.905
==== e(  66) =    -0.77255 eV ==== 
     psi = 0.368*[#  12]+0.351*[#   8]+0.107*[#  40]+0.103*[#  52]+0.015*[#  44]
          +0.011*[#  48]+0.005*[#  56]+0.005*[#  16]+0.004*[#  36]+0.003*[#   4]
          
    |psi|^2 = 0.974
==== e(  67) =    -0.44375 eV ==== 
     psi = 0.212*[#  16]+0.168*[#   8]+0.148*[#  12]+0.136*[#   4]+0.102*[#  56]
          +0.072*[#  36]+0.040*[#  44]+0.032*[#  48]+0.017*[#  40]+0.011*[#  28]
          +0.009*[#  52]+0.003*[#  76]+0.002*[#  24]
    |psi|^2 = 0.965

 k =   0.0000000000  0.0260077786  0.0000000000
==== e(   1) =   -19.16576 eV ==== 
     psi = 0.105*[#  65]+0.096*[#  69]+0.079*[#  45]+0.077*[#  41]+0.071*[#  49]
          +0.060*[#  21]+0.059*[#  25]+0.054*[#  61]+0.052*[#  73]+0.050*[#   9]
          +0.045*[#  37]+0.042*[#   5]+0.021*[#  13]+0.020*[#  53]+0.017*[#  17]
          +0.013*[#  29]+0.012*[#  23]+0.011*[#   1]+0.009*[#  27]+0.008*[#  57]
          +0.008*[#  33]+0.007*[#   7]+0.007*[#  77]+0.006*[#  11]+0.004*[#  15]
          +0.004*[#  18]+0.004*[#  30]+0.003*[#  28]+0.003*[#  24]+0.003*[#  12]
          +0.003*[#  70]+0.002*[#   8]+0.002*[#  47]+0.002*[#  63]+0.002*[#  71]
          +0.002*[#  66]+0.002*[#  31]+0.002*[#  42]+0.002*[#  67]+0.002*[#  75]
          +0.002*[#   2]+0.002*[#   3]+0.002*[#  43]+0.002*[#  39]+0.001*[#  14]
          +0.001*[#  46]+0.001*[#  16]+0.001*[#  51]+0.001*[#  74]
    |psi|^2 = 0.999
==== e(   2) =   -19.12558 eV ==== 
     psi = 0.105*[#  41]+0.095*[#  45]+0.087*[#  69]+0.085*[#  65]+0.069*[#  37]
          +0.058*[#   5]+0.053*[#  21]+0.052*[#   9]+0.049*[#  49]+0.048*[#  61]
          +0.048*[#  25]+0.044*[#  73]+0.018*[#   1]+0.013*[#  33]+0.013*[#  13]
          +0.013*[#  17]+0.012*[#  27]+0.012*[#  29]+0.012*[#  22]+0.010*[#  11]
          +0.010*[#  23]+0.009*[#  26]+0.008*[#   7]+0.007*[#  53]+0.007*[#   6]
          +0.007*[#  57]+0.006*[#  77]+0.006*[#  10]+0.004*[#  14]+0.003*[#   8]
          +0.003*[#  51]+0.003*[#  19]+0.003*[#  24]+0.003*[#  67]+0.003*[#   3]
          +0.003*[#  12]+0.003*[#  28]+0.003*[#  43]+0.002*[#  39]+0.002*[#  46]
          +0.002*[#  62]+0.002*[#  47]+0.002*[#  70]+0.002*[#  63]+0.002*[#  75]
          +0.002*[#  30]+0.002*[#  66]+0.002*[#  71]+0.002*[#  74]+0.002*[#   2]
          +0.002*[#  42]+0.002*[#  31]+0.001*[#  15]+0.002*[#  38]+0.001*[#  50]
          
    |psi|^2 = 1.025
==== e(   3) =   -18.69585 eV ==== 
     psi = 0.194*[#  37]+0.190*[#  49]+0.126*[#  53]+0.108*[#  33]+0.084*[#  13]
          +0.077*[#   1]+0.028*[#   5]+0.021*[#   9]+0.021*[#  41]+0.016*[#  15]
          +0.015*[#   3]+0.015*[#  45]+0.005*[#  51]+0.005*[#  39]+0.004*[#  16]
          +0.003*[#   4]+0.003*[#  18]+0.003*[#  43]+0.003*[#  30]+0.003*[#  47]
          +0.003*[#  14]+0.003*[#  66]+0.002*[#  70]+0.002*[#   2]+0.002*[#  46]
          +0.002*[#  42]+0.002*[#  27]+0.002*[#  61]+0.001*[#   8]+0.002*[#  50]
          +0.001*[#  69]+0.001*[#  12]+0.001*[#  21]+0.001*[#  34]+0.001*[#  54]
          +0.001*[#  38]
    |psi|^2 = 0.963
==== e(   4) =   -18.49711 eV ==== 
     psi = 0.213*[#  73]+0.194*[#  61]+0.086*[#  57]+0.085*[#  77]+0.080*[#  17]
          +0.079*[#  29]+0.034*[#  25]+0.029*[#  21]+0.025*[#  69]+0.023*[#  65]
          +0.017*[#  31]+0.015*[#  19]+0.012*[#  26]+0.010*[#  10]+0.010*[#  22]
          +0.008*[#   6]+0.006*[#  63]+0.006*[#  75]+0.005*[#  71]+0.005*[#  67]
          +0.003*[#  20]+0.003*[#  32]+0.003*[#  50]+0.003*[#  18]+0.003*[#  53]
          +0.003*[#  66]+0.003*[#   2]+0.003*[#  42]+0.002*[#  38]+0.002*[#  46]
          +0.002*[#  62]+0.002*[#  74]+0.002*[#  70]+0.002*[#  28]+0.002*[#  30]
          +0.001*[#  14]+0.001*[#  24]
    |psi|^2 = 0.990
==== e(   5) =   -18.26744 eV ==== 
     psi = 0.225*[#  33]+0.219*[#  53]+0.089*[#  41]+0.084*[#  45]+0.074*[#   1]
          +0.065*[#  13]+0.036*[#  37]+0.022*[#  49]+0.021*[#  14]+0.020*[#   2]
          +0.017*[#   9]+0.013*[#   3]+0.013*[#   7]+0.012*[#   5]+0.012*[#  11]
          +0.010*[#  15]+0.009*[#   6]+0.008*[#  10]+0.005*[#  34]+0.005*[#  54]
          +0.005*[#  42]+0.004*[#  46]+0.004*[#  50]+0.003*[#   4]+0.003*[#  38]
          +0.003*[#  16]+0.002*[#  27]+0.001*[#  69]+0.001*[#  77]+0.001*[#  29]
          +0.001*[#  36]+0.001*[#  39]
    |psi|^2 = 0.998
==== e(   6) =   -17.93135 eV ==== 
     psi = 0.208*[#  57]+0.184*[#  77]+0.083*[#  17]+0.081*[#  69]+0.078*[#  29]
          +0.077*[#  65]+0.058*[#  73]+0.052*[#  61]+0.016*[#  31]+0.016*[#  19]
          +0.015*[#  27]+0.015*[#  23]+0.013*[#   2]+0.013*[#   6]+0.012*[#  10]
          +0.012*[#  21]+0.010*[#  14]+0.009*[#  25]+0.003*[#  20]+0.003*[#  32]
          +0.002*[#  26]+0.002*[#  63]+0.001*[#  75]+0.001*[#  59]+0.001*[#  79]
          +0.001*[#  38]+0.001*[#  53]
    |psi|^2 = 0.975
==== e(   7) =   -17.81613 eV ==== 
     psi = 0.234*[#  53]+0.233*[#  33]+0.135*[#  49]+0.110*[#  37]+0.028*[#   1]
          +0.025*[#   5]+0.024*[#   9]+0.023*[#  41]+0.022*[#  13]+0.018*[#  45]
          +0.015*[#  18]+0.012*[#  30]+0.011*[#  26]+0.011*[#  22]+0.006*[#  58]
          +0.005*[#  78]+0.005*[#  66]+0.005*[#  70]+0.004*[#  77]+0.004*[#  62]
          +0.003*[#  74]+0.003*[#   4]+0.003*[#  16]+0.002*[#  43]+0.002*[#  47]
          +0.002*[#  29]
    |psi|^2 = 0.952
==== e(   8) =   -17.54602 eV ==== 
     psi = 0.262*[#  37]+0.225*[#  49]+0.115*[#  33]+0.094*[#  53]+0.085*[#  41]
          +0.059*[#  45]+0.019*[#   7]+0.016*[#  30]+0.016*[#  18]+0.016*[#  11]
          +0.015*[#  26]+0.015*[#  22]+0.007*[#   1]+0.004*[#   3]+0.004*[#  15]
          +0.004*[#  13]+0.004*[#  77]+0.002*[#   4]+0.001*[#  16]+0.002*[#  62]
          +0.001*[#   5]+0.001*[#  74]+0.001*[#  58]+0.001*[#  78]+0.001*[#  65]
          
    |psi|^2 = 0.981
==== e(   9) =   -17.37649 eV ==== 
     psi = 0.240*[#  57]+0.227*[#  77]+0.100*[#  61]+0.072*[#  73]+0.040*[#  18]
          +0.036*[#  29]+0.036*[#  30]+0.034*[#  17]+0.031*[#  45]+0.023*[#  25]
          +0.023*[#  69]+0.023*[#  21]+0.021*[#  41]+0.015*[#  65]+0.014*[#  22]
          +0.010*[#  26]+0.008*[#  49]+0.005*[#  74]+0.004*[#  62]+0.003*[#  20]
          +0.003*[#  32]+0.003*[#  67]+0.003*[#  71]+0.002*[#  53]+0.003*[#  58]
          +0.003*[#  78]+0.002*[#  11]+0.002*[#  37]+0.002*[#  79]+0.001*[#   6]
          +0.001*[#  59]
    |psi|^2 = 0.998
==== e(  10) =   -17.37326 eV ==== 
     psi = 0.392*[#  45]+0.351*[#  41]+0.051*[#  49]+0.040*[#  37]+0.020*[#  77]
          +0.019*[#  11]+0.016*[#   7]+0.015*[#  57]+0.006*[#  73]+0.005*[#  15]
          +0.004*[#  65]+0.004*[#  69]+0.004*[#   3]+0.004*[#   5]+0.003*[#   9]
          +0.003*[#  29]+0.003*[#  61]+0.003*[#   8]+0.003*[#  12]+0.003*[#  66]
          +0.003*[#  70]+0.002*[#  10]+0.002*[#  17]+0.002*[#  25]+0.002*[#  78]
          +0.001*[#  58]
    |psi|^2 = 0.968
==== e(  11) =   -17.09254 eV ==== 
     psi = 0.229*[#  73]+0.225*[#  61]+0.140*[#  77]+0.118*[#  57]+0.061*[#  65]
          +0.056*[#  69]+0.018*[#  23]+0.016*[#  27]+0.015*[#   6]+0.014*[#  10]
          +0.013*[#  29]+0.009*[#  17]+0.003*[#  19]+0.003*[#  30]+0.003*[#  18]
          +0.003*[#  49]+0.003*[#  32]+0.002*[#  20]+0.002*[#  25]+0.002*[#  31]
          +0.002*[#  53]+0.002*[#  14]+0.002*[#  26]+0.001*[#   2]+0.001*[#  21]
          +0.001*[#  79]+0.001*[#  22]
    |psi|^2 = 0.953
==== e(  12) =   -17.01585 eV ==== 
     psi = 0.384*[#  65]+0.381*[#  69]+0.059*[#  73]+0.058*[#  61]+0.019*[#  10]
          +0.017*[#  23]+0.016*[#  27]+0.016*[#   6]+0.007*[#  21]+0.007*[#  25]
          +0.006*[#  19]+0.005*[#  31]+0.005*[#  14]+0.004*[#  24]+0.004*[#  28]
          +0.004*[#   2]+0.003*[#  49]+0.002*[#  77]+0.002*[#  45]+0.001*[#  29]
          
    |psi|^2 = 1.007
==== e(  13) =   -13.69020 eV ==== 
     psi = 0.321*[#   9]+0.305*[#   5]+0.052*[#  43]+0.051*[#  47]+0.041*[#  37]
          +0.041*[#  50]+0.038*[#  38]+0.037*[#  49]+0.025*[#  13]+0.019*[#   1]
          +0.014*[#  53]+0.012*[#  33]+0.007*[#  42]+0.005*[#  46]+0.003*[#  54]
          +0.002*[#  34]+0.002*[#  14]+0.002*[#   2]+0.002*[#   3]+0.002*[#   6]
          +0.002*[#  40]+0.002*[#  52]+0.002*[#  15]+0.002*[#  44]+0.001*[#  10]
          +0.002*[#  48]
    |psi|^2 = 0.997
==== e(  14) =   -13.30347 eV ==== 
     psi = 0.286*[#  25]+0.281*[#  21]+0.060*[#  67]+0.060*[#  71]+0.052*[#  42]
          +0.051*[#  46]+0.047*[#  73]+0.042*[#  61]+0.021*[#  17]+0.019*[#  29]
          +0.016*[#  77]+0.015*[#  57]+0.012*[#  13]+0.003*[#  76]+0.003*[#   9]
          +0.003*[#  64]+0.002*[#  53]+0.002*[#  68]+0.002*[#  72]+0.002*[#  55]
          +0.002*[#  51]+0.002*[#   2]+0.002*[#  31]+0.002*[#  14]+0.002*[#  19]
          
    |psi|^2 = 0.996
==== e(  15) =   -13.15632 eV ==== 
     psi = 0.168*[#  13]+0.138*[#   1]+0.136*[#   5]+0.108*[#   9]+0.060*[#  53]
          +0.053*[#  33]+0.041*[#  74]+0.039*[#  62]+0.032*[#  41]+0.027*[#  45]
          +0.010*[#  51]+0.009*[#  21]+0.007*[#  39]+0.005*[#  25]+0.004*[#  30]
          +0.004*[#  18]+0.003*[#  70]+0.003*[#  43]+0.003*[#  55]+0.003*[#  26]
          +0.003*[#  11]+0.003*[#  35]+0.003*[#  66]+0.002*[#   7]+0.002*[#  22]
          +0.002*[#  58]+0.002*[#  56]+0.002*[#  78]+0.002*[#  36]+0.002*[#  71]
          +0.001*[#  54]+0.001*[#  67]+0.001*[#  47]+0.001*[#  61]+0.001*[#  40]
          
    |psi|^2 = 0.890
==== e(  16) =   -12.62963 eV ==== 
     psi = 0.149*[#  17]+0.124*[#  29]+0.123*[#  25]+0.119*[#  21]+0.066*[#  57]
          +0.060*[#  66]+0.060*[#  70]+0.058*[#  77]+0.033*[#  69]+0.029*[#  65]
          +0.012*[#  63]+0.010*[#  75]+0.004*[#  23]+0.004*[#  27]+0.003*[#  59]
          +0.003*[#  79]+0.003*[#  60]+0.002*[#  54]+0.002*[#  80]+0.002*[#  50]
          +0.002*[#  30]+0.002*[#  18]+0.001*[#   1]+0.001*[#  64]+0.001*[#  76]
          +0.001*[#  19]+0.001*[#  55]+0.001*[#  71]
    |psi|^2 = 0.885
==== e(  17) =   -12.49274 eV ==== 
     psi = 0.261*[#   1]+0.240*[#  13]+0.081*[#  33]+0.070*[#  53]+0.034*[#  34]
          +0.034*[#  49]+0.032*[#  54]+0.028*[#  51]+0.028*[#  37]+0.027*[#  39]
          +0.020*[#   9]+0.016*[#  42]+0.011*[#  46]+0.010*[#   2]+0.010*[#  47]
          +0.009*[#  35]+0.008*[#  45]+0.008*[#  55]+0.008*[#  43]+0.007*[#  14]
          +0.006*[#   5]+0.005*[#  38]+0.004*[#  36]+0.004*[#   3]+0.003*[#   6]
          +0.004*[#  15]+0.004*[#  56]+0.003*[#  10]+0.003*[#  25]+0.003*[#  41]
          +0.002*[#  50]+0.002*[#   7]+0.002*[#  17]+0.001*[#  11]
    |psi|^2 = 0.997
==== e(  18) =   -11.78437 eV ==== 
     psi = 0.114*[#  17]+0.112*[#  29]+0.074*[#   5]+0.073*[#   1]+0.071*[#   9]
          +0.041*[#  13]+0.040*[#  77]+0.038*[#  57]+0.037*[#  41]+0.034*[#  45]
          +0.028*[#  50]+0.027*[#  38]+0.027*[#  37]+0.020*[#  33]+0.019*[#  49]
          +0.019*[#  61]+0.018*[#  75]+0.016*[#  63]+0.015*[#  73]+0.012*[#  39]
          +0.012*[#  51]+0.011*[#  21]+0.010*[#  53]+0.010*[#  46]+0.009*[#  34]
          +0.008*[#  43]+0.008*[#  54]+0.008*[#  42]+0.008*[#  71]+0.007*[#  47]
          +0.005*[#  65]+0.005*[#  67]+0.005*[#  25]+0.005*[#  79]+0.005*[#  59]
          +0.004*[#  19]+0.004*[#  35]+0.004*[#   2]+0.004*[#  14]+0.003*[#  27]
          +0.003*[#  31]+0.003*[#  55]+0.003*[#  60]+0.003*[#  80]+0.003*[#  69]
          +0.002*[#   3]+0.002*[#   6]+0.001*[#  36]+0.001*[#  10]
    |psi|^2 = 0.998
==== e(  19) =   -11.74164 eV ==== 
     psi = 0.127*[#  29]+0.111*[#  17]+0.069*[#  13]+0.068*[#   5]+0.067*[#   9]
          +0.061*[#   1]+0.044*[#  77]+0.039*[#  57]+0.034*[#  45]+0.033*[#  41]
          +0.025*[#  49]+0.024*[#  37]+0.018*[#  53]+0.017*[#  33]+0.016*[#  61]
          +0.016*[#  63]+0.016*[#  73]+0.014*[#  58]+0.014*[#  75]+0.013*[#  78]
          +0.011*[#  34]+0.010*[#  39]+0.009*[#  66]+0.009*[#  70]+0.008*[#  51]
          +0.008*[#  54]+0.008*[#  67]+0.007*[#  43]+0.007*[#  47]+0.006*[#  46]
          +0.006*[#  79]+0.005*[#  30]+0.005*[#  18]+0.005*[#  21]+0.005*[#  59]
          +0.004*[#  42]+0.004*[#  55]+0.004*[#  71]+0.004*[#  74]+0.004*[#  31]
          +0.004*[#  38]+0.004*[#  35]+0.004*[#  50]+0.003*[#  65]+0.003*[#  80]
          +0.003*[#  60]+0.003*[#  22]+0.002*[#  15]+0.002*[#  25]+0.002*[#  19]
          +0.002*[#   3]+0.002*[#  62]+0.002*[#  26]+0.002*[#  69]+0.001*[#  23]
          +0.001*[#  36]+0.001*[#  56]
    |psi|^2 = 0.998
==== e(  20) =   -10.86944 eV ==== 
     psi = 0.128*[#  25]+0.127*[#  29]+0.125*[#  21]+0.111*[#  17]+0.069*[#  69]
          +0.069*[#  65]+0.049*[#  73]+0.047*[#  61]+0.038*[#  77]+0.033*[#  57]
          +0.024*[#  75]+0.023*[#  63]+0.018*[#  74]+0.016*[#  62]+0.015*[#  67]
          +0.015*[#  71]+0.012*[#  38]+0.012*[#  79]+0.012*[#  50]+0.009*[#  59]
          +0.008*[#  42]+0.008*[#  70]+0.007*[#  46]+0.007*[#  31]+0.006*[#  19]
          +0.005*[#  66]+0.005*[#  78]+0.005*[#  80]+0.005*[#  58]+0.004*[#  18]
          +0.004*[#  60]+0.004*[#  34]+0.003*[#  26]+0.003*[#  30]+0.003*[#  54]
          +0.003*[#  72]+0.003*[#  68]+0.002*[#  64]+0.003*[#  76]+0.002*[#   2]
          
    |psi|^2 = 1.045
==== e(  21) =    -8.62426 eV ==== 
     psi = 0.164*[#  47]+0.147*[#  43]+0.123*[#  11]+0.103*[#   7]+0.064*[#  51]
          +0.046*[#  15]+0.035*[#  50]+0.033*[#  39]+0.027*[#   3]+0.025*[#  38]
          +0.024*[#  55]+0.018*[#  10]+0.018*[#   6]+0.014*[#  19]+0.013*[#  14]
          +0.012*[#  35]+0.012*[#  13]+0.010*[#  45]+0.009*[#   1]+0.008*[#  41]
          +0.008*[#  62]+0.007*[#   2]+0.007*[#   9]+0.007*[#   5]+0.005*[#  46]
          +0.005*[#  63]+0.004*[#  23]+0.004*[#  67]+0.004*[#  42]+0.003*[#  12]
          +0.002*[#   8]+0.002*[#  54]+0.002*[#  59]+0.002*[#  66]+0.002*[#  49]
          +0.001*[#  53]+0.001*[#  27]+0.001*[#  34]+0.001*[#  56]+0.001*[#  75]
          +0.001*[#  33]+0.001*[#  36]+0.001*[#  37]
    |psi|^2 = 0.985
==== e(  22) =    -8.58996 eV ==== 
     psi = 0.169*[#  67]+0.169*[#  71]+0.164*[#  46]+0.147*[#  42]+0.123*[#  10]
          +0.103*[#   6]+0.098*[#  27]+0.091*[#  23]+0.064*[#  50]+0.046*[#  14]
          +0.033*[#  38]+0.032*[#  75]+0.030*[#  63]+0.029*[#  19]+0.027*[#   2]
          +0.024*[#  54]+0.022*[#  31]+0.018*[#  55]+0.014*[#  18]+0.012*[#  34]
          +0.011*[#  29]+0.010*[#  17]+0.010*[#  59]+0.010*[#  69]+0.009*[#  79]
          +0.008*[#  21]+0.008*[#  65]+0.007*[#  15]+0.007*[#  25]+0.005*[#  51]
          +0.005*[#  62]+0.004*[#  24]+0.004*[#  22]+0.004*[#  66]+0.004*[#  53]
          +0.003*[#  28]+0.003*[#  56]+0.002*[#  58]+0.002*[#  11]+0.002*[#  16]
          +0.002*[#  13]+0.002*[#  80]+0.001*[#  60]+0.001*[#  61]+0.001*[#  73]
          +0.001*[#   3]+0.001*[#  26]+0.001*[#  41]+0.001*[#  74]+0.001*[#  44]
          +0.001*[#  77]
    |psi|^2 = 1.559
==== e(  23) =    -8.33013 eV ==== 
     psi = 0.032*[#  50]+0.030*[#  15]+0.029*[#  26]+0.026*[#   3]+0.025*[#  22]
          +0.025*[#  62]+0.020*[#  47]+0.019*[#  74]+0.019*[#  43]+0.014*[#  52]
          +0.014*[#  42]+0.013*[#  40]+0.013*[#  66]+0.013*[#  71]+0.012*[#  10]
          +0.011*[#   4]+0.011*[#  36]+0.010*[#  16]+0.010*[#  46]+0.010*[#  56]
          +0.009*[#  27]+0.008*[#  31]+0.008*[#  67]+0.008*[#  23]+0.008*[#  49]
          +0.007*[#  70]+0.006*[#  37]+0.006*[#  39]+0.006*[#  75]+0.005*[#  11]
          +0.005*[#  30]+0.004*[#  18]+0.004*[#  33]+0.004*[#  63]+0.004*[#   6]
          +0.003*[#  79]+0.003*[#  19]+0.003*[#   7]+0.003*[#   8]+0.003*[#  12]
          +0.003*[#  41]+0.003*[#  53]+0.003*[#  51]+0.002*[#  45]+0.002*[#  38]
          +0.002*[#  35]+0.002*[#  44]+0.002*[#  29]+0.002*[#  48]+0.002*[#  65]
          +0.002*[#  59]+0.001*[#  28]+0.001*[#   1]+0.001*[#   2]+0.001*[#  54]
          
    |psi|^2 = 0.500
==== e(  24) =    -8.20279 eV ==== 
     psi = 0.169*[#  66]+0.169*[#  70]+0.098*[#  26]+0.091*[#  22]+0.071*[#  19]
          +0.059*[#   3]+0.058*[#   7]+0.057*[#  43]+0.054*[#  51]+0.046*[#  39]
          +0.036*[#  15]+0.036*[#  55]+0.032*[#  35]+0.032*[#  74]+0.030*[#  62]
          +0.029*[#  18]+0.025*[#  71]+0.023*[#  23]+0.022*[#  30]+0.018*[#  54]
          +0.017*[#  59]+0.013*[#  75]+0.013*[#  76]+0.011*[#  63]+0.010*[#  58]
          +0.009*[#   1]+0.009*[#  78]+0.009*[#  80]+0.008*[#  28]+0.008*[#  72]
          +0.007*[#  14]+0.007*[#  32]+0.005*[#  11]+0.005*[#  20]+0.005*[#  50]
          +0.005*[#  27]+0.005*[#  29]+0.005*[#  13]+0.004*[#  60]+0.003*[#  64]
          +0.002*[#  41]+0.002*[#  79]+0.002*[#  10]+0.002*[#   8]+0.001*[#  47]
          +0.002*[#  65]+0.002*[#  73]+0.001*[#  67]+0.001*[#  77]+0.001*[#   2]
          +0.001*[#   5]+0.001*[#  33]
    |psi|^2 = 1.342
==== e(  25) =    -8.13046 eV ==== 
     psi = 0.136*[#  70]+0.097*[#  66]+0.093*[#  74]+0.074*[#  26]+0.055*[#  22]
          +0.054*[#  31]+0.053*[#  67]+0.032*[#  64]+0.029*[#  60]+0.024*[#  20]
          +0.022*[#  27]+0.020*[#  18]+0.019*[#  76]+0.018*[#  32]+0.017*[#  80]
          +0.016*[#  55]+0.015*[#  15]+0.015*[#  63]+0.014*[#  51]+0.014*[#  50]
          +0.013*[#  24]+0.012*[#  39]+0.012*[#  43]+0.012*[#  79]+0.011*[#  68]
          +0.010*[#   3]+0.009*[#   7]+0.009*[#  38]+0.008*[#  62]+0.007*[#  35]
          +0.006*[#  61]+0.006*[#  17]+0.006*[#  71]+0.005*[#   2]+0.005*[#  14]
          +0.004*[#  69]+0.004*[#  11]+0.003*[#  57]+0.003*[#  73]+0.003*[#  10]
          +0.002*[#   1]+0.002*[#  30]+0.002*[#  75]+0.002*[#  78]+0.001*[#  28]
          +0.001*[#  65]+0.001*[#  77]+0.001*[#  47]
    |psi|^2 = 0.989
==== e(  26) =    -7.91405 eV ==== 
     psi = 0.054*[#  31]+0.054*[#  30]+0.053*[#  66]+0.047*[#  47]+0.043*[#   3]
          +0.040*[#  19]+0.036*[#  15]+0.031*[#  11]+0.030*[#  72]+0.029*[#  79]
          +0.029*[#  71]+0.026*[#  28]+0.026*[#  68]+0.025*[#  75]+0.024*[#  35]
          +0.022*[#  26]+0.020*[#  59]+0.019*[#  27]+0.018*[#  24]+0.017*[#  39]
          +0.017*[#  23]+0.016*[#  54]+0.015*[#  14]+0.015*[#  62]+0.014*[#  50]
          +0.014*[#  76]+0.012*[#  38]+0.012*[#  42]+0.012*[#  78]+0.011*[#  67]
          +0.010*[#   2]+0.009*[#  29]+0.009*[#   6]+0.009*[#  63]+0.009*[#  12]
          +0.008*[#  48]+0.008*[#  13]+0.007*[#  34]+0.007*[#  55]+0.007*[#   7]
          +0.006*[#  17]+0.006*[#  70]+0.005*[#  51]+0.005*[#  80]+0.005*[#  64]
          +0.005*[#  44]+0.004*[#  10]+0.004*[#   8]+0.003*[#   1]+0.003*[#  32]
          +0.003*[#  52]+0.002*[#  43]+0.002*[#  56]+0.002*[#  74]+0.001*[#  16]
          +0.001*[#  46]+0.001*[#  60]
    |psi|^2 = 0.932
==== e(  27) =    -7.63533 eV ==== 
     psi = 0.129*[#  72]+0.124*[#  68]+0.098*[#  24]+0.089*[#  28]+0.079*[#  74]
          +0.077*[#  64]+0.073*[#  62]+0.068*[#  76]+0.059*[#  75]+0.050*[#  63]
          +0.050*[#  50]+0.049*[#  38]+0.014*[#  67]+0.014*[#  71]+0.013*[#  79]
          +0.013*[#  20]+0.013*[#  27]+0.013*[#  30]+0.012*[#  23]+0.012*[#  66]
          +0.012*[#  59]+0.011*[#   6]+0.009*[#  22]+0.008*[#  32]+0.006*[#  77]
          +0.006*[#   2]+0.006*[#  57]+0.006*[#  21]+0.005*[#  29]+0.005*[#  56]
          +0.004*[#  12]+0.004*[#  25]+0.004*[#  48]+0.004*[#  52]+0.004*[#  17]
          +0.003*[#  18]+0.003*[#  31]+0.003*[#  14]+0.003*[#  16]+0.003*[#  19]
          +0.003*[#  42]+0.003*[#  70]+0.003*[#  44]+0.003*[#   8]+0.002*[#  15]
          +0.002*[#  26]+0.002*[#  47]+0.002*[#  54]+0.002*[#  73]+0.002*[#  61]
          +0.002*[#   3]+0.002*[#  60]+0.002*[#  11]+0.002*[#  40]+0.001*[#  78]
          +0.001*[#  46]
    |psi|^2 = 1.200
==== e(  28) =    -7.42071 eV ==== 
     psi = 0.112*[#  44]+0.106*[#  48]+0.095*[#  12]+0.090*[#   8]+0.057*[#  39]
          +0.054*[#  30]+0.051*[#  52]+0.047*[#  46]+0.046*[#  40]+0.046*[#  51]
          +0.043*[#   2]+0.040*[#  18]+0.036*[#  14]+0.031*[#  10]+0.029*[#  78]
          +0.029*[#  70]+0.025*[#  74]+0.024*[#  34]+0.020*[#  58]+0.019*[#  26]
          +0.019*[#  63]+0.017*[#  38]+0.017*[#  22]+0.012*[#  59]+0.011*[#   9]
          +0.011*[#  66]+0.009*[#  62]+0.008*[#  60]+0.007*[#   5]+0.007*[#  33]
          +0.007*[#  54]+0.007*[#   6]+0.007*[#  53]+0.005*[#  19]+0.005*[#  50]
          +0.005*[#  16]+0.004*[#  35]+0.004*[#  11]+0.004*[#   4]+0.003*[#  17]
          +0.003*[#  71]+0.003*[#  23]+0.002*[#  42]+0.002*[#  47]+0.002*[#  45]
          +0.002*[#  20]+0.002*[#  37]+0.002*[#  55]+0.002*[#  27]+0.002*[#  41]
          +0.001*[#  65]+0.001*[#  68]+0.001*[#  28]+0.001*[#  57]+0.001*[#   7]
          +0.001*[#  15]+0.001*[#  49]+0.001*[#   3]+0.001*[#  79]
    |psi|^2 = 1.214
==== e(  29) =    -7.20732 eV ==== 
     psi = 0.069*[#  35]+0.066*[#  55]+0.066*[#  39]+0.057*[#  47]+0.054*[#  51]
          +0.050*[#   3]+0.049*[#  43]+0.047*[#   2]+0.046*[#  15]+0.045*[#  80]
          +0.037*[#  11]+0.035*[#  14]+0.029*[#   7]+0.024*[#  36]+0.022*[#  32]
          +0.021*[#  40]+0.017*[#  38]+0.016*[#  30]+0.016*[#  52]+0.015*[#   9]
          +0.014*[#  56]+0.014*[#   5]+0.012*[#  50]+0.012*[#  76]+0.011*[#   4]
          +0.009*[#  37]+0.009*[#  74]+0.008*[#  42]+0.008*[#  49]+0.008*[#  46]
          +0.008*[#  79]+0.007*[#  16]+0.006*[#  60]+0.006*[#  75]+0.006*[#  10]
          +0.006*[#  70]+0.005*[#   6]+0.005*[#   8]+0.005*[#  31]+0.004*[#  78]
          +0.003*[#  54]+0.003*[#   1]+0.003*[#  66]+0.003*[#  12]+0.003*[#  13]
          +0.003*[#  18]+0.003*[#  19]+0.003*[#  34]+0.002*[#  29]+0.002*[#  20]
          +0.002*[#  27]+0.001*[#  21]+0.001*[#  33]+0.001*[#  73]+0.001*[#  58]
          +0.001*[#  23]+0.001*[#  28]+0.001*[#  53]
    |psi|^2 = 0.990
==== e(  30) =    -7.16988 eV ==== 
     psi = 0.285*[#  60]+0.141*[#  20]+0.097*[#  80]+0.069*[#  34]+0.066*[#  54]
          +0.066*[#  38]+0.057*[#  46]+0.054*[#  50]+0.050*[#   2]+0.050*[#  64]
          +0.049*[#  42]+0.047*[#  32]+0.046*[#  14]+0.037*[#  10]+0.029*[#   6]
          +0.029*[#  31]+0.019*[#  40]+0.018*[#  63]+0.014*[#  79]+0.012*[#  67]
          +0.011*[#   8]+0.011*[#  36]+0.010*[#   4]+0.009*[#  25]+0.008*[#  78]
          +0.006*[#  74]+0.005*[#  44]+0.005*[#  55]+0.005*[#  30]+0.004*[#  23]
          +0.004*[#  48]+0.004*[#  28]+0.003*[#  17]+0.003*[#  65]+0.003*[#  18]
          +0.002*[#  68]+0.002*[#  61]+0.002*[#  72]+0.002*[#   7]+0.002*[#   3]
          +0.002*[#  26]+0.002*[#  69]+0.001*[#   5]+0.001*[#  43]+0.001*[#  76]
          +0.001*[#  22]+0.001*[#  24]+0.001*[#  57]+0.001*[#  59]
    |psi|^2 = 1.358
==== e(  31) =    -7.13589 eV ==== 
     psi = 0.171*[#  80]+0.089*[#  32]+0.081*[#  76]+0.049*[#  18]+0.038*[#  71]
          +0.037*[#  19]+0.033*[#  59]+0.030*[#  64]+0.028*[#  70]+0.027*[#  74]
          +0.026*[#  56]+0.024*[#  67]+0.023*[#  66]+0.016*[#  51]+0.016*[#  24]
          +0.015*[#  21]+0.015*[#  58]+0.014*[#  75]+0.012*[#  27]+0.012*[#  26]
          +0.011*[#  28]+0.011*[#  16]+0.011*[#  79]+0.010*[#  35]+0.010*[#  31]
          +0.009*[#  55]+0.008*[#  15]+0.008*[#   3]+0.008*[#  30]+0.007*[#  23]
          +0.007*[#  39]+0.007*[#  47]+0.007*[#  52]+0.006*[#  43]+0.006*[#  25]
          +0.006*[#  34]+0.005*[#  60]+0.004*[#  46]+0.003*[#  11]+0.003*[#  20]
          +0.003*[#  63]+0.003*[#  29]+0.003*[#   7]+0.003*[#  12]+0.003*[#  44]
          +0.003*[#  73]+0.002*[#   4]+0.002*[#  36]+0.002*[#  72]+0.002*[#  38]
          +0.002*[#   5]+0.002*[#  50]+0.001*[#  49]+0.001*[#  61]+0.001*[#  17]
          
    |psi|^2 = 0.944
==== e(  32) =    -7.02148 eV ==== 
     psi = 0.225*[#  56]+0.196*[#  36]+0.128*[#  16]+0.108*[#   4]+0.033*[#  52]
          +0.029*[#  30]+0.022*[#  40]+0.018*[#  62]+0.014*[#  78]+0.012*[#  66]
          +0.011*[#  60]+0.010*[#  15]+0.008*[#   3]+0.008*[#  80]+0.008*[#  39]
          +0.005*[#  54]+0.005*[#  32]+0.005*[#  20]+0.005*[#  76]+0.004*[#  43]
          +0.004*[#  67]+0.004*[#  22]+0.004*[#  71]+0.003*[#   5]+0.003*[#  47]
          +0.003*[#   9]+0.002*[#  33]+0.002*[#  19]+0.002*[#  45]+0.002*[#   7]
          +0.002*[#   6]+0.002*[#  41]+0.002*[#  51]+0.002*[#  53]+0.002*[#  59]
          +0.002*[#  63]+0.002*[#   2]+0.001*[#  11]+0.002*[#  55]+0.002*[#  72]
          +0.001*[#  23]+0.001*[#  42]+0.001*[#   1]+0.001*[#  12]+0.001*[#  13]
          +0.001*[#  25]+0.001*[#  64]+0.001*[#  58]
    |psi|^2 = 0.918
==== e(  33) =    -6.91750 eV ==== 
     psi = 0.122*[#  36]+0.107*[#  56]+0.097*[#   4]+0.081*[#  16]+0.070*[#  54]
          +0.067*[#  34]+0.059*[#  40]+0.044*[#  51]+0.041*[#  39]+0.038*[#  52]
          +0.020*[#  63]+0.018*[#   8]+0.016*[#  55]+0.016*[#  59]+0.013*[#  35]
          +0.012*[#  50]+0.011*[#  58]+0.011*[#  38]+0.010*[#  74]+0.010*[#  20]
          +0.010*[#  60]+0.009*[#  75]+0.009*[#  64]+0.008*[#  12]+0.007*[#  46]
          +0.007*[#  42]+0.007*[#  44]+0.005*[#  18]+0.005*[#  14]+0.004*[#  66]
          +0.004*[#  47]+0.004*[#  76]+0.004*[#  78]+0.003*[#  31]+0.003*[#  48]
          +0.002*[#   2]+0.002*[#  11]+0.002*[#  19]+0.002*[#  33]+0.002*[#  53]
          +0.002*[#  28]+0.002*[#  24]+0.002*[#  57]+0.002*[#  13]+0.001*[#  43]
          +0.001*[#  68]+0.001*[#  49]+0.001*[#  71]+0.001*[#   1]+0.001*[#  79]
          
    |psi|^2 = 0.987
==== e(  34) =    -6.75876 eV ==== 
     psi = 0.097*[#  75]+0.096*[#  63]+0.079*[#  79]+0.066*[#  59]+0.056*[#  60]
          +0.050*[#  80]+0.044*[#  50]+0.041*[#  20]+0.041*[#  38]+0.040*[#  32]
          +0.027*[#  36]+0.020*[#  62]+0.018*[#  31]+0.016*[#  54]+0.016*[#  58]
          +0.015*[#   4]+0.014*[#  19]+0.013*[#  23]+0.013*[#  34]+0.012*[#  27]
          +0.012*[#  67]+0.010*[#  72]+0.010*[#  71]+0.009*[#  73]+0.009*[#  74]
          +0.009*[#  61]+0.009*[#  76]+0.008*[#  56]+0.007*[#  77]+0.006*[#  21]
          +0.006*[#  25]+0.006*[#  57]+0.006*[#  68]+0.005*[#  16]+0.005*[#  39]
          +0.004*[#  46]+0.004*[#  64]+0.004*[#  52]+0.003*[#  55]+0.003*[#  12]
          +0.003*[#  30]+0.002*[#  48]+0.002*[#  10]+0.002*[#  18]+0.002*[#  35]
          +0.002*[#  28]+0.001*[#  42]+0.001*[#  70]+0.001*[#  29]+0.001*[#  78]
          
    |psi|^2 = 0.936
==== e(  35) =    -6.49354 eV ==== 
     psi = 0.148*[#  76]+0.133*[#  80]+0.127*[#  64]+0.121*[#  60]+0.057*[#  28]
          +0.055*[#  63]+0.054*[#  75]+0.051*[#  24]+0.044*[#  70]+0.039*[#  58]
          +0.035*[#  66]+0.030*[#  78]+0.030*[#  30]+0.025*[#  32]+0.024*[#  18]
          +0.021*[#  20]+0.011*[#  46]+0.008*[#  59]+0.008*[#  79]+0.008*[#  52]
          +0.006*[#  34]+0.005*[#  31]+0.005*[#  65]+0.004*[#  19]+0.004*[#  69]
          +0.004*[#  25]+0.004*[#  68]+0.004*[#  21]+0.004*[#  39]+0.004*[#  67]
          +0.003*[#  27]+0.003*[#  72]+0.003*[#  12]+0.003*[#  62]+0.003*[#  71]
          +0.003*[#  16]+0.003*[#  23]+0.002*[#   6]+0.002*[#  77]+0.001*[#  38]
          +0.001*[#  43]+0.001*[#  48]+0.001*[#  54]+0.001*[#  57]+0.001*[#  56]
          +0.001*[#  36]
    |psi|^2 = 1.112
==== e(  36) =    -6.38670 eV ==== 
     psi = 0.101*[#  39]+0.097*[#  74]+0.096*[#  62]+0.079*[#  78]+0.070*[#  51]
          +0.066*[#  58]+0.046*[#  52]+0.018*[#  30]+0.017*[#  40]+0.014*[#  15]
          +0.014*[#  18]+0.013*[#  22]+0.012*[#  26]+0.012*[#  66]+0.012*[#  71]
          +0.011*[#  75]+0.010*[#  70]+0.009*[#  41]+0.009*[#  49]+0.008*[#  37]
          +0.008*[#  64]+0.008*[#  44]+0.007*[#   3]+0.006*[#  56]+0.005*[#  24]
          +0.005*[#  38]+0.005*[#  45]+0.005*[#  80]+0.004*[#  12]+0.004*[#  79]
          +0.004*[#  35]+0.003*[#  60]+0.003*[#  48]+0.003*[#  54]+0.003*[#  72]
          +0.002*[#  34]+0.002*[#  43]+0.002*[#  76]+0.002*[#  32]+0.002*[#  53]
          +0.001*[#   5]+0.001*[#  20]+0.001*[#  27]+0.001*[#  47]+0.001*[#  59]
          +0.001*[#  19]+0.001*[#  23]+0.001*[#  65]
    |psi|^2 = 0.816
==== e(  37) =    -6.34205 eV ==== 
     psi = 0.139*[#  40]+0.123*[#  36]+0.107*[#  56]+0.101*[#  52]+0.061*[#   8]
          +0.053*[#  51]+0.051*[#  12]+0.033*[#  39]+0.024*[#   4]+0.021*[#  50]
          +0.018*[#  16]+0.018*[#   2]+0.018*[#  14]+0.018*[#  35]+0.017*[#  55]
          +0.016*[#   6]+0.013*[#  46]+0.012*[#  38]+0.009*[#   3]+0.007*[#  15]
          +0.007*[#  42]+0.007*[#  71]+0.006*[#   9]+0.006*[#   5]+0.006*[#  47]
          +0.005*[#  10]+0.005*[#  23]+0.005*[#  45]+0.005*[#  58]+0.005*[#   7]
          +0.004*[#  48]+0.004*[#  70]+0.004*[#  54]+0.004*[#  41]+0.004*[#  80]
          +0.003*[#  75]+0.003*[#  79]+0.003*[#  34]+0.003*[#  11]+0.003*[#  44]
          +0.002*[#  72]+0.002*[#  19]+0.002*[#  33]+0.002*[#  43]+0.002*[#  53]
          +0.002*[#  67]+0.002*[#  68]+0.001*[#  78]+0.001*[#  25]+0.001*[#  32]
          +0.001*[#  37]+0.001*[#  65]
    |psi|^2 = 0.982
==== e(  38) =    -6.25690 eV ==== 
     psi = 0.121*[#  43]+0.098*[#  47]+0.097*[#  55]+0.090*[#  35]+0.076*[#   7]
          +0.069*[#  11]+0.053*[#  50]+0.035*[#  52]+0.033*[#  38]+0.025*[#  40]
          +0.022*[#  36]+0.020*[#  79]+0.019*[#  56]+0.018*[#  34]+0.017*[#  54]
          +0.014*[#  39]+0.012*[#  59]+0.011*[#  12]+0.009*[#   2]+0.009*[#  27]
          +0.009*[#   4]+0.009*[#  23]+0.009*[#  67]+0.008*[#   8]+0.007*[#  14]
          +0.007*[#  70]+0.006*[#   5]+0.006*[#   3]+0.006*[#  46]+0.006*[#  64]
          +0.006*[#  37]+0.005*[#  22]+0.005*[#   9]+0.005*[#   6]+0.005*[#  16]
          +0.004*[#  48]+0.004*[#  31]+0.004*[#  49]+0.003*[#  74]+0.003*[#  78]
          +0.003*[#  10]+0.003*[#  44]+0.003*[#  63]+0.002*[#  18]+0.002*[#  42]
          +0.002*[#  66]+0.002*[#  13]+0.002*[#  15]+0.002*[#  60]+0.002*[#  71]
          +0.001*[#   1]+0.002*[#  21]+0.001*[#  19]+0.002*[#  45]+0.002*[#  73]
          +0.001*[#  33]+0.001*[#  41]+0.001*[#  28]+0.001*[#  51]+0.001*[#  65]
          +0.001*[#  68]
    |psi|^2 = 1.008
==== e(  39) =    -6.11916 eV ==== 
     psi = 0.120*[#  64]+0.118*[#  76]+0.087*[#  75]+0.084*[#  63]+0.054*[#  67]
          +0.049*[#  71]+0.044*[#  42]+0.040*[#  46]+0.031*[#  60]+0.031*[#  80]
          +0.024*[#  59]+0.023*[#  23]+0.020*[#  79]+0.020*[#   2]+0.017*[#  27]
          +0.014*[#  28]+0.011*[#  24]+0.011*[#  32]+0.011*[#  61]+0.010*[#  14]
          +0.010*[#  40]+0.009*[#  66]+0.009*[#  20]+0.008*[#  73]+0.008*[#  70]
          +0.007*[#  34]+0.006*[#  30]+0.005*[#  39]+0.005*[#  72]+0.005*[#  51]
          +0.004*[#  52]+0.004*[#  19]+0.003*[#  69]+0.003*[#  36]+0.002*[#  74]
          +0.002*[#  26]+0.002*[#  48]+0.002*[#  65]+0.002*[#  47]+0.002*[#  50]
          +0.002*[#  62]+0.001*[#   8]+0.001*[#  22]+0.001*[#  43]+0.001*[#  54]
          +0.001*[#  68]+0.001*[#   3]+0.001*[#  13]+0.001*[#  18]+0.001*[#  31]
          +0.001*[#  38]+0.001*[#  45]+0.001*[#  58]+0.001*[#  77]
    |psi|^2 = 0.943
==== e(  40) =    -6.01224 eV ==== 
     psi = 0.121*[#  42]+0.098*[#  46]+0.097*[#  54]+0.090*[#  34]+0.076*[#   6]
          +0.069*[#  10]+0.061*[#  44]+0.049*[#  12]+0.042*[#  55]+0.041*[#  15]
          +0.041*[#  48]+0.040*[#   3]+0.033*[#  35]+0.029*[#   8]+0.023*[#  52]
          +0.021*[#  39]+0.020*[#  78]+0.018*[#  51]+0.014*[#  38]+0.012*[#  58]
          +0.012*[#   7]+0.011*[#  11]+0.010*[#  56]+0.009*[#  26]+0.009*[#  22]
          +0.009*[#  66]+0.009*[#  40]+0.008*[#  64]+0.006*[#   2]+0.006*[#   5]
          +0.006*[#  16]+0.005*[#  36]+0.005*[#  13]+0.004*[#   1]+0.004*[#  30]
          +0.004*[#  53]+0.004*[#  43]+0.004*[#  45]+0.004*[#   9]+0.004*[#  47]
          +0.004*[#   4]+0.004*[#  75]+0.003*[#  33]+0.003*[#  41]+0.003*[#  49]
          +0.003*[#  23]+0.003*[#  37]+0.003*[#  62]+0.003*[#  67]+0.002*[#  14]
          +0.002*[#  24]+0.002*[#  70]+0.001*[#  18]+0.001*[#  19]+0.001*[#  79]
          +0.001*[#  50]
    |psi|^2 = 1.170
==== e(  41) =    -5.94828 eV ==== 
     psi = 0.205*[#  70]+0.204*[#  66]+0.047*[#  59]+0.041*[#  79]+0.039*[#  26]
          +0.037*[#  22]+0.026*[#  75]+0.025*[#  63]+0.024*[#  71]+0.020*[#  74]
          +0.020*[#  68]+0.019*[#  62]+0.017*[#  72]+0.017*[#  18]+0.017*[#  67]
          +0.016*[#  23]+0.015*[#  78]+0.015*[#  27]+0.015*[#  30]+0.014*[#  58]
          +0.009*[#  55]+0.009*[#  64]+0.009*[#  40]+0.008*[#  47]+0.008*[#  48]
          +0.007*[#  35]+0.007*[#  14]+0.006*[#  65]+0.005*[#  69]+0.005*[#  51]
          +0.005*[#  11]+0.005*[#  15]+0.004*[#  25]+0.004*[#  34]+0.004*[#  52]
          +0.004*[#  76]+0.004*[#  80]+0.003*[#   7]+0.003*[#  16]+0.003*[#  60]
          +0.003*[#  21]+0.003*[#  31]+0.003*[#  36]+0.003*[#  43]+0.003*[#  56]
          +0.003*[#  77]+0.002*[#   6]+0.002*[#  49]+0.003*[#  57]+0.002*[#   3]
          +0.002*[#  46]+0.002*[#  54]+0.001*[#  53]+0.001*[#  73]
    |psi|^2 = 0.989
==== e(  42) =    -5.80053 eV ==== 
     psi = 0.124*[#  72]+0.061*[#  59]+0.047*[#  58]+0.045*[#  19]+0.041*[#  78]
          +0.040*[#  79]+0.036*[#  75]+0.035*[#  68]+0.028*[#  63]+0.026*[#  74]
          +0.026*[#  23]+0.025*[#  62]+0.024*[#  70]+0.022*[#  31]+0.019*[#  27]
          +0.017*[#  66]+0.016*[#  24]+0.016*[#  22]+0.016*[#  47]+0.015*[#  26]
          +0.011*[#  76]+0.009*[#  54]+0.009*[#  15]+0.009*[#  56]+0.009*[#  25]
          +0.008*[#  46]+0.008*[#  61]+0.007*[#  34]+0.007*[#  21]+0.006*[#  67]
          +0.006*[#  35]+0.006*[#  48]+0.005*[#  50]+0.005*[#  64]+0.005*[#  11]
          +0.005*[#  10]+0.005*[#  43]+0.005*[#  14]+0.005*[#  71]+0.004*[#  28]
          +0.004*[#  73]+0.004*[#  57]+0.004*[#  65]+0.004*[#  40]+0.004*[#  51]
          +0.003*[#   6]+0.003*[#  13]+0.003*[#  30]+0.003*[#  42]+0.003*[#  45]
          +0.002*[#   7]+0.002*[#   2]+0.002*[#  16]+0.002*[#  77]+0.002*[#  17]
          +0.001*[#   9]+0.001*[#  36]+0.001*[#  39]+0.001*[#   5]+0.001*[#  69]
          
    |psi|^2 = 0.869
==== e(  43) =    -5.67917 eV ==== 
     psi = 0.214*[#  58]+0.122*[#  78]+0.083*[#  44]+0.079*[#  48]+0.049*[#   3]
          +0.048*[#  40]+0.042*[#   8]+0.031*[#  12]+0.028*[#  15]+0.022*[#  52]
          +0.019*[#  35]+0.015*[#  55]+0.009*[#   1]+0.007*[#  46]+0.007*[#  74]
          +0.006*[#   6]+0.006*[#  56]+0.006*[#  13]+0.006*[#  41]+0.005*[#  42]
          +0.005*[#  54]+0.005*[#  37]+0.004*[#   9]+0.004*[#  49]+0.004*[#  64]
          +0.004*[#  68]+0.003*[#  33]+0.003*[#  18]+0.003*[#   2]+0.003*[#  45]
          +0.003*[#  36]+0.002*[#   7]+0.002*[#  53]+0.002*[#  39]+0.002*[#  66]
          +0.002*[#  70]+0.001*[#   5]+0.001*[#  14]+0.001*[#  31]+0.001*[#  76]
          
    |psi|^2 = 0.873
==== e(  44) =    -5.58644 eV ==== 
     psi = 0.305*[#  68]+0.160*[#  72]+0.061*[#  58]+0.045*[#  18]+0.040*[#  78]
          +0.039*[#  31]+0.036*[#  74]+0.032*[#  28]+0.028*[#  62]+0.026*[#  22]
          +0.022*[#  30]+0.020*[#  24]+0.019*[#  26]+0.018*[#  19]+0.018*[#  79]
          +0.017*[#  64]+0.016*[#  46]+0.012*[#  63]+0.010*[#  40]+0.009*[#  14]
          +0.009*[#  80]+0.008*[#  60]+0.007*[#  73]+0.006*[#  27]+0.006*[#  66]
          +0.006*[#  34]+0.005*[#  10]+0.005*[#  42]+0.005*[#  70]+0.004*[#  59]
          +0.004*[#  50]+0.003*[#  55]+0.003*[#  69]+0.003*[#  29]+0.003*[#  77]
          +0.003*[#  76]+0.003*[#  61]+0.003*[#  39]+0.002*[#   6]+0.002*[#  17]
[...]
          +0.004*[#  25]+0.004*[#  36]+0.003*[#   6]+0.003*[#  15]+0.003*[#   1]
          +0.003*[#   3]+0.002*[#  59]+0.002*[#   2]+0.002*[#  31]+0.002*[#  26]
          +0.002*[#   5]+0.001*[#  22]+0.001*[#   9]+0.001*[#  56]
    |psi|^2 = 1.147
==== e(  49) =    -4.63491 eV ==== 
     psi = 0.246*[#  48]+0.114*[#  55]+0.073*[#  78]+0.072*[#  44]+0.042*[#  68]
          +0.041*[#  34]+0.040*[#  13]+0.033*[#  54]+0.033*[#  38]+0.030*[#  15]
          +0.025*[#  72]+0.021*[#  74]+0.019*[#  46]+0.018*[#  51]+0.013*[#  59]
          +0.011*[#  14]+0.010*[#  29]+0.008*[#  47]+0.008*[#  58]+0.007*[#   8]
          +0.007*[#  40]+0.006*[#   5]+0.006*[#  80]+0.005*[#  50]+0.005*[#  62]
          +0.005*[#  63]+0.005*[#  52]+0.005*[#  30]+0.005*[#  56]+0.005*[#  43]
          +0.005*[#  71]+0.004*[#  19]+0.004*[#  27]+0.004*[#   1]+0.004*[#  70]
          +0.003*[#   6]+0.003*[#  31]+0.003*[#  17]+0.003*[#   7]+0.003*[#  12]
          +0.002*[#  26]+0.002*[#  45]+0.002*[#  64]+0.002*[#  16]+0.002*[#  21]
          +0.002*[#  25]+0.001*[#   3]+0.001*[#  79]+0.001*[#   9]+0.001*[#  11]
          +0.001*[#  67]
    |psi|^2 = 0.983
==== e(  50) =    -4.57450 eV ==== 
     psi = 0.257*[#  35]+0.184*[#  44]+0.114*[#  54]+0.063*[#  39]+0.049*[#   1]
          +0.045*[#   3]+0.036*[#  43]+0.033*[#  55]+0.030*[#  14]+0.022*[#   9]
          +0.018*[#  50]+0.017*[#  48]+0.016*[#  40]+0.015*[#  47]+0.013*[#  58]
          +0.009*[#  11]+0.008*[#  46]+0.007*[#  12]+0.007*[#  59]+0.005*[#  62]
          +0.005*[#  41]+0.005*[#  42]+0.005*[#  70]+0.004*[#  18]+0.004*[#  26]
          +0.004*[#  36]+0.003*[#   5]+0.003*[#  30]+0.003*[#  68]+0.003*[#   7]
          +0.003*[#   6]+0.003*[#  52]+0.002*[#  15]+0.001*[#  33]+0.001*[#   2]
          +0.001*[#  17]+0.001*[#  78]+0.001*[#  10]+0.001*[#  19]+0.001*[#  45]
          +0.001*[#  66]
    |psi|^2 = 1.010
==== e(  51) =    -4.40841 eV ==== 
     psi = 0.106*[#  72]+0.084*[#  79]+0.080*[#  50]+0.061*[#  75]+0.058*[#  21]
          +0.035*[#  71]+0.032*[#  23]+0.030*[#  48]+0.027*[#  54]+0.023*[#   2]
          +0.023*[#  60]+0.021*[#  17]+0.021*[#  31]+0.020*[#  55]+0.020*[#  64]
          +0.020*[#  68]+0.019*[#  38]+0.016*[#  76]+0.014*[#  63]+0.013*[#  29]
          +0.009*[#  34]+0.009*[#  10]+0.009*[#  42]+0.008*[#   5]+0.008*[#  15]
          +0.007*[#  69]+0.007*[#  51]+0.006*[#  47]+0.005*[#  27]+0.005*[#  78]
          +0.005*[#   7]+0.004*[#  74]+0.004*[#  11]+0.004*[#  19]+0.004*[#   6]
          +0.003*[#  36]+0.003*[#  46]+0.002*[#  43]+0.002*[#  59]+0.002*[#   1]
          +0.001*[#   9]+0.001*[#  24]+0.001*[#  35]+0.001*[#  45]
    |psi|^2 = 0.845
==== e(  52) =    -4.33320 eV ==== 
     psi = 0.257*[#  34]+0.081*[#  25]+0.068*[#  68]+0.063*[#  38]+0.063*[#  67]
          +0.056*[#  59]+0.045*[#   2]+0.042*[#  55]+0.038*[#  71]+0.036*[#  42]
          +0.034*[#  27]+0.033*[#  54]+0.029*[#  63]+0.026*[#  80]+0.023*[#  48]
          +0.022*[#  21]+0.020*[#  23]+0.017*[#  51]+0.015*[#  46]+0.011*[#  47]
          +0.010*[#   5]+0.009*[#  10]+0.008*[#  19]+0.008*[#  79]+0.008*[#  76]
          +0.007*[#  65]+0.007*[#  60]+0.007*[#  58]+0.006*[#  29]+0.005*[#  72]
          +0.004*[#  35]+0.004*[#   7]+0.003*[#   6]+0.003*[#  69]+0.002*[#  17]
          +0.002*[#  36]+0.002*[#  43]+0.002*[#  52]+0.002*[#  13]+0.002*[#  15]
          +0.002*[#  14]+0.001*[#  40]+0.001*[#  56]+0.001*[#  18]+0.001*[#  64]
          
    |psi|^2 = 1.096
==== e(  53) =    -4.19774 eV ==== 
     psi = 0.156*[#  42]+0.134*[#  46]+0.057*[#  54]+0.055*[#  34]+0.051*[#  56]
          +0.044*[#  36]+0.038*[#  13]+0.035*[#   1]+0.031*[#  50]+0.030*[#   9]
          +0.030*[#  44]+0.028*[#  11]+0.025*[#   7]+0.020*[#  55]+0.019*[#   5]
          +0.017*[#  35]+0.017*[#  38]+0.016*[#  48]+0.015*[#  59]+0.014*[#  58]
          +0.011*[#  17]+0.011*[#  15]+0.010*[#  52]+0.009*[#  70]+0.008*[#  51]
          +0.008*[#  63]+0.008*[#   3]+0.008*[#  74]+0.006*[#   2]+0.005*[#  25]
          +0.005*[#  10]+0.005*[#  14]+0.004*[#   6]+0.004*[#  19]+0.004*[#  67]
          +0.004*[#  40]+0.004*[#  43]+0.004*[#  60]+0.004*[#  68]+0.003*[#  39]
          +0.003*[#  18]+0.003*[#  47]+0.002*[#  64]+0.002*[#  75]+0.002*[#  76]
          +0.002*[#  23]+0.002*[#  66]+0.002*[#  72]
    |psi|^2 = 0.980
==== e(  54) =    -4.08956 eV ==== 
     psi = 0.085*[#  79]+0.067*[#  52]+0.059*[#  40]+0.056*[#  35]+0.042*[#   9]
          +0.039*[#  55]+0.034*[#   5]+0.028*[#  10]+0.027*[#  29]+0.025*[#   6]
          +0.020*[#  54]+0.020*[#  59]+0.017*[#  34]+0.017*[#  31]+0.015*[#  11]
          +0.015*[#  58]+0.013*[#  44]+0.012*[#  64]+0.011*[#   3]+0.011*[#   1]
          +0.011*[#  14]+0.009*[#  17]+0.008*[#  15]+0.008*[#  48]+0.008*[#  80]
          +0.008*[#  50]+0.008*[#  62]+0.008*[#   2]+0.007*[#  47]+0.007*[#   7]
          +0.006*[#  60]+0.006*[#  63]+0.006*[#  67]+0.006*[#  43]+0.005*[#  19]
          +0.004*[#  13]+0.004*[#  18]+0.004*[#  66]+0.004*[#  42]+0.004*[#  25]
          +0.004*[#  51]+0.004*[#  75]+0.003*[#  21]+0.003*[#  38]+0.003*[#  68]
          +0.003*[#  46]+0.002*[#  74]+0.002*[#  22]+0.002*[#  39]+0.001*[#  23]
          
    |psi|^2 = 0.779
==== e(  55) =    -4.06024 eV ==== 
     psi = 0.201*[#  59]+0.084*[#  50]+0.075*[#  38]+0.071*[#  17]+0.070*[#  42]
          +0.049*[#  70]+0.048*[#  79]+0.045*[#  19]+0.038*[#  46]+0.025*[#  60]
          +0.024*[#  29]+0.024*[#  76]+0.019*[#  40]+0.018*[#  80]+0.018*[#  52]
          +0.016*[#   5]+0.016*[#  55]+0.016*[#  75]+0.014*[#  31]+0.014*[#  25]
          +0.013*[#  35]+0.013*[#  74]+0.009*[#  63]+0.009*[#  66]+0.008*[#  13]
          +0.008*[#   7]+0.008*[#  78]+0.006*[#  27]+0.006*[#  58]+0.005*[#  71]
          +0.004*[#   9]+0.004*[#  30]+0.003*[#  48]+0.003*[#  21]+0.003*[#  54]
          +0.002*[#   3]+0.002*[#  47]+0.002*[#  64]+0.002*[#  68]+0.002*[#  28]
          +0.002*[#  62]+0.001*[#  36]+0.001*[#  56]+0.001*[#   6]+0.001*[#  10]
          +0.001*[#  26]
    |psi|^2 = 1.014
==== e(  56) =    -4.02159 eV ==== 
     psi = 0.208*[#  79]+0.086*[#  59]+0.085*[#  78]+0.056*[#  34]+0.047*[#  29]
          +0.046*[#  31]+0.044*[#  64]+0.039*[#  54]+0.033*[#  21]+0.032*[#  76]
          +0.023*[#  25]+0.020*[#  58]+0.019*[#  19]+0.017*[#  30]+0.017*[#  23]
          +0.016*[#  55]+0.015*[#  10]+0.015*[#  17]+0.015*[#  40]+0.011*[#   2]
          +0.011*[#  52]+0.010*[#  15]+0.009*[#  27]+0.008*[#  14]+0.008*[#   5]
          +0.007*[#  46]+0.007*[#   6]+0.007*[#  35]+0.006*[#   9]+0.006*[#  62]
          +0.006*[#  66]+0.006*[#  42]+0.005*[#  71]+0.005*[#  18]+0.005*[#  80]
          +0.005*[#  75]+0.004*[#  67]+0.004*[#  13]+0.004*[#  50]+0.004*[#  74]
          +0.002*[#   7]+0.002*[#  11]+0.002*[#  24]+0.002*[#  38]+0.001*[#   3]
          +0.001*[#  28]+0.001*[#  43]+0.001*[#  47]+0.001*[#  22]+0.001*[#  44]
          +0.001*[#  48]
    |psi|^2 = 0.996
==== e(  57) =    -2.15376 eV ==== 
     psi = 0.175*[#  11]+0.169*[#   7]+0.115*[#  47]+0.106*[#  43]+0.052*[#  15]
          +0.043*[#   3]+0.033*[#  14]+0.029*[#   9]+0.026*[#   2]+0.025*[#   5]
          +0.018*[#  35]+0.017*[#  50]+0.015*[#  10]+0.015*[#  55]+0.014*[#  38]
          +0.012*[#   6]+0.008*[#  41]+0.008*[#  45]+0.004*[#  63]+0.004*[#  58]
          +0.003*[#  49]+0.004*[#  51]+0.003*[#  17]+0.003*[#  37]+0.003*[#  18]
          +0.002*[#  56]+0.003*[#  71]+0.002*[#  36]+0.002*[#  19]+0.002*[#  25]
          +0.002*[#  54]+0.002*[#  27]+0.001*[#  26]+0.001*[#  34]+0.001*[#  44]
          +0.001*[#  46]+0.001*[#  48]+0.001*[#  39]+0.001*[#  60]+0.001*[#  62]
          +0.001*[#  76]
    |psi|^2 = 0.937
==== e(  58) =    -1.42857 eV ==== 
     psi = 0.175*[#  10]+0.169*[#   6]+0.115*[#  46]+0.106*[#  42]+0.106*[#  23]
          +0.081*[#  15]+0.076*[#  27]+0.058*[#  67]+0.056*[#  12]+0.052*[#  14]
          +0.043*[#   2]+0.037*[#  71]+0.030*[#  19]+0.027*[#   3]+0.021*[#  11]
          +0.020*[#  44]+0.019*[#   7]+0.018*[#  21]+0.018*[#  34]+0.016*[#  49]
          +0.015*[#  54]+0.012*[#  59]+0.012*[#  55]+0.011*[#  31]+0.012*[#  53]
          +0.010*[#   8]+0.009*[#  25]+0.008*[#  79]+0.007*[#  43]+0.006*[#  16]
          +0.006*[#  39]+0.006*[#  13]+0.006*[#  40]+0.005*[#  36]+0.005*[#  63]
          +0.005*[#  56]+0.005*[#  47]+0.004*[#  41]+0.004*[#  62]+0.004*[#   4]
          +0.004*[#  35]+0.004*[#   9]+0.004*[#  50]+0.003*[#   1]+0.003*[#  61]
          +0.003*[#  37]+0.003*[#  51]+0.003*[#  65]+0.003*[#  52]+0.003*[#  45]
          +0.003*[#  70]+0.002*[#   5]+0.002*[#  18]+0.002*[#  73]+0.002*[#  17]
          +0.002*[#  26]+0.002*[#  69]+0.001*[#  80]+0.001*[#  48]+0.001*[#  28]
          +0.001*[#  38]
    |psi|^2 = 1.451
==== e(  59) =    -1.37521 eV ==== 
     psi = 0.096*[#   3]+0.069*[#  27]+0.051*[#  15]+0.051*[#   7]+0.045*[#  51]
          +0.043*[#  18]+0.038*[#  71]+0.037*[#  43]+0.034*[#  54]+0.029*[#  30]
          +0.025*[#  10]+0.024*[#  16]+0.022*[#   8]+0.018*[#  31]+0.016*[#  39]
          +0.015*[#  11]+0.014*[#  62]+0.013*[#   5]+0.013*[#  25]+0.012*[#  14]
          +0.011*[#  23]+0.011*[#  67]+0.011*[#  60]+0.010*[#  19]+0.010*[#  17]
          +0.010*[#  47]+0.009*[#  40]+0.009*[#  55]+0.009*[#   1]+0.008*[#  42]
          +0.008*[#  35]+0.008*[#  53]+0.008*[#  22]+0.006*[#  37]+0.005*[#  63]
          +0.005*[#  34]+0.005*[#  41]+0.005*[#  49]+0.005*[#  69]+0.005*[#  74]
          +0.004*[#  13]+0.004*[#  57]+0.004*[#  79]+0.003*[#  66]+0.003*[#  58]
          +0.003*[#  12]+0.002*[#  26]+0.002*[#  48]+0.002*[#   2]+0.002*[#  21]
          +0.002*[#  38]+0.002*[#  44]+0.002*[#   4]+0.002*[#  59]+0.002*[#   9]
          +0.002*[#  68]+0.001*[#  73]+0.001*[#  24]+0.001*[#  33]+0.001*[#  46]
          +0.001*[#  56]+0.001*[#  76]+0.001*[#  29]
    |psi|^2 = 0.876
==== e(  60) =    -1.20670 eV ==== 
     psi = 0.106*[#  22]+0.095*[#   8]+0.081*[#  14]+0.076*[#  26]+0.058*[#  66]
          +0.056*[#  40]+0.044*[#  23]+0.043*[#  56]+0.037*[#  70]+0.030*[#  18]
          +0.027*[#   2]+0.027*[#  15]+0.027*[#  13]+0.026*[#  45]+0.026*[#  55]
          +0.022*[#  53]+0.021*[#  10]+0.020*[#  36]+0.020*[#   4]+0.019*[#   6]
          +0.017*[#   3]+0.016*[#   7]+0.016*[#  67]+0.013*[#  19]+0.012*[#  58]
          +0.012*[#  54]+0.011*[#  30]+0.010*[#  39]+0.008*[#  78]+0.007*[#  65]
          +0.007*[#  21]+0.007*[#  42]+0.006*[#  38]+0.006*[#  37]+0.006*[#  47]
          +0.006*[#  11]+0.005*[#  62]+0.005*[#  46]+0.005*[#   9]+0.004*[#  34]
          +0.003*[#  31]+0.003*[#  24]+0.003*[#  49]+0.003*[#  50]+0.003*[#  52]
          +0.003*[#  64]+0.003*[#   1]+0.003*[#  35]+0.003*[#  71]+0.003*[#  80]
          +0.002*[#  28]+0.002*[#  44]+0.002*[#  73]+0.002*[#  27]+0.002*[#  51]
          +0.002*[#   5]+0.002*[#  72]+0.001*[#  68]+0.001*[#  17]
    |psi|^2 = 1.092
==== e(  61) =    -1.15981 eV ==== 
     psi = 0.312*[#   2]+0.102*[#  12]+0.076*[#  10]+0.063*[#  34]+0.056*[#  36]
          +0.050*[#  52]+0.048*[#  35]+0.037*[#  33]+0.035*[#  56]+0.033*[#  16]
          +0.024*[#   1]+0.020*[#  41]+0.017*[#  39]+0.012*[#  14]+0.008*[#  48]
          +0.007*[#   3]+0.006*[#  50]+0.005*[#   9]+0.004*[#   4]+0.003*[#  11]
          +0.003*[#  38]+0.002*[#  47]+0.001*[#  37]+0.001*[#  26]+0.001*[#  49]
          
    |psi|^2 = 0.938
==== e(  62) =    -0.95117 eV ==== 
     psi = 0.230*[#   8]+0.165*[#  12]+0.053*[#  52]+0.048*[#  34]+0.026*[#  48]
          +0.018*[#  37]+0.017*[#  38]+0.012*[#  23]+0.012*[#  39]+0.012*[#  15]
          +0.010*[#  40]+0.010*[#   3]+0.009*[#   4]+0.008*[#  28]+0.008*[#  19]
          +0.007*[#   2]+0.006*[#  76]+0.006*[#  33]+0.006*[#  63]+0.004*[#  44]
          +0.004*[#  79]+0.004*[#  61]+0.004*[#  67]+0.003*[#  77]+0.003*[#  10]
          +0.003*[#  59]+0.003*[#  69]+0.002*[#  46]+0.002*[#   5]+0.002*[#  27]
          +0.002*[#  43]+0.002*[#  64]+0.002*[#  45]+0.002*[#  51]+0.002*[#  75]
          +0.002*[#  16]+0.002*[#  41]+0.002*[#  80]+0.001*[#  29]+0.001*[#  31]
          +0.001*[#  32]+0.001*[#  73]
    |psi|^2 = 0.729
==== e(  63) =    -0.93206 eV ==== 
     psi = 0.122*[#   6]+0.060*[#  38]+0.046*[#  19]+0.043*[#  57]+0.038*[#  60]
          +0.027*[#  30]+0.026*[#   3]+0.022*[#  59]+0.020*[#  80]+0.020*[#  65]
          +0.019*[#   2]+0.019*[#  17]+0.019*[#  27]+0.018*[#  34]+0.016*[#  50]
          +0.015*[#  12]+0.014*[#  24]+0.014*[#  72]+0.013*[#  76]+0.012*[#  28]
          +0.011*[#  22]+0.010*[#  15]+0.010*[#  31]+0.009*[#   4]+0.008*[#  18]
          +0.008*[#  26]+0.008*[#  32]+0.007*[#  44]+0.006*[#  39]+0.006*[#  56]
          +0.005*[#  14]+0.005*[#  42]+0.005*[#  53]+0.004*[#  20]+0.005*[#  63]
          +0.004*[#  49]+0.004*[#  73]+0.004*[#  13]+0.003*[#  29]+0.003*[#  47]
          +0.003*[#  68]+0.003*[#   8]+0.003*[#  69]+0.002*[#   1]+0.002*[#  77]
          +0.002*[#  33]+0.002*[#  55]+0.002*[#  48]+0.002*[#  43]+0.002*[#  78]
          +0.002*[#  37]+0.002*[#  74]+0.001*[#  23]+0.001*[#  25]+0.001*[#  11]
          +0.001*[#  58]
    |psi|^2 = 0.747
==== e(  64) =    -0.90017 eV ==== 
     psi = 0.079*[#  31]+0.049*[#  77]+0.037*[#  28]+0.032*[#  24]+0.029*[#  80]
          +0.026*[#  79]+0.026*[#  29]+0.024*[#  69]+0.021*[#  20]+0.021*[#  64]
          +0.013*[#  32]+0.012*[#  22]+0.012*[#  38]+0.012*[#  14]+0.012*[#   8]
          +0.011*[#  68]+0.010*[#   2]+0.009*[#  76]+0.008*[#  18]+0.006*[#  15]
          +0.006*[#  62]+0.005*[#  21]+0.005*[#  60]+0.005*[#  12]+0.005*[#  23]
          +0.004*[#  78]+0.004*[#  66]+0.004*[#  25]+0.004*[#  75]+0.004*[#  48]
          +0.004*[#  52]+0.003*[#  27]+0.003*[#  19]+0.003*[#  61]+0.002*[#   4]
          +0.003*[#  58]+0.002*[#  55]+0.002*[#  26]+0.002*[#  37]+0.002*[#  42]
          +0.002*[#  57]+0.002*[#  50]+0.002*[#  74]+0.002*[#  67]+0.002*[#  11]
          +0.002*[#  33]+0.001*[#  51]+0.001*[#  59]+0.001*[#  49]
    |psi|^2 = 0.545
==== e(  65) =    -0.72264 eV ==== 
     psi = 0.143*[#  10]+0.080*[#   6]+0.053*[#  12]+0.042*[#  26]+0.041*[#  40]
          +0.037*[#  50]+0.035*[#  51]+0.034*[#   3]+0.032*[#  54]+0.030*[#  23]
          +0.028*[#   8]+0.027*[#  15]+0.025*[#  19]+0.019*[#  14]+0.019*[#  67]
          +0.018*[#  39]+0.016*[#  16]+0.016*[#  44]+0.014*[#  46]+0.014*[#  18]
          +0.013*[#  49]+0.013*[#  22]+0.012*[#  34]+0.010*[#  65]+0.010*[#  21]
          +0.010*[#  30]+0.010*[#  62]+0.009*[#  24]+0.009*[#  37]+0.009*[#  71]
          +0.008*[#  58]+0.007*[#  74]+0.007*[#  53]+0.006*[#  64]+0.006*[#  27]
          +0.005*[#  41]+0.005*[#  45]+0.005*[#  57]+0.004*[#  76]+0.004*[#  80]
          +0.004*[#  13]+0.003*[#  42]+0.003*[#   4]+0.003*[#  25]+0.003*[#   1]
          +0.003*[#  17]+0.003*[#  52]+0.003*[#  66]+0.003*[#  72]+0.002*[#   9]
          +0.002*[#  32]+0.002*[#  60]+0.002*[#  11]+0.002*[#  33]+0.001*[#  28]
          +0.001*[#  20]+0.001*[#  55]+0.001*[#  69]+0.001*[#  31]
    |psi|^2 = 0.938
==== e(  66) =    -0.60944 eV ==== 
     psi = 0.190*[#  26]+0.181*[#  22]+0.053*[#  31]+0.038*[#  19]+0.028*[#  73]
          +0.027*[#  27]+0.024*[#  78]+0.023*[#  18]+0.023*[#   4]+0.022*[#  61]
          +0.022*[#  23]+0.021*[#  64]+0.021*[#  58]+0.020*[#  76]+0.015*[#  11]
          +0.015*[#  75]+0.014*[#  62]+0.012*[#  72]+0.012*[#  74]+0.012*[#  20]
          +0.011*[#   2]+0.010*[#   8]+0.010*[#  10]+0.010*[#  57]+0.010*[#  68]
          +0.009*[#  66]+0.008*[#  63]+0.008*[#  77]+0.007*[#  30]+0.007*[#  38]
          +0.006*[#  70]+0.006*[#  65]+0.006*[#  69]+0.006*[#  32]+0.005*[#  36]
          +0.005*[#   6]+0.005*[#  16]+0.004*[#  47]+0.004*[#  48]+0.004*[#  71]
          +0.003*[#  29]+0.003*[#  42]+0.003*[#  28]+0.003*[#  56]+0.003*[#  67]
          +0.002*[#  80]+0.002*[#  24]+0.002*[#  35]+0.002*[#   3]+0.002*[#  17]
          +0.002*[#  33]+0.001*[#  39]+0.001*[#  34]+0.001*[#  44]+0.001*[#  50]
          +0.001*[#  60]
    |psi|^2 = 0.953
==== e(  67) =    -0.52650 eV ==== 
     psi = 0.100*[#  16]+0.075*[#  24]+0.071*[#  28]+0.060*[#  18]+0.057*[#   3]
          +0.055*[#  56]+0.051*[#  30]+0.039*[#   6]+0.039*[#  38]+0.026*[#  23]
          +0.024*[#  31]+0.021*[#  76]+0.020*[#  11]+0.017*[#  19]+0.017*[#  64]
          +0.016*[#  63]+0.016*[#  75]+0.016*[#  47]+0.016*[#  34]+0.014*[#  27]
          +0.014*[#  59]+0.014*[#   7]+0.013*[#  79]+0.010*[#  67]+0.009*[#   4]
          +0.009*[#  61]+0.009*[#  39]+0.008*[#  71]+0.007*[#  73]+0.006*[#  66]
          +0.006*[#   1]+0.005*[#  70]+0.005*[#  40]+0.004*[#  25]+0.004*[#  13]
          +0.004*[#  21]+0.004*[#  42]+0.003*[#  10]+0.003*[#  52]+0.003*[#  33]
          +0.003*[#  78]+0.002*[#  72]+0.002*[#  57]+0.002*[#  60]+0.001*[#   5]
          +0.001*[#  14]+0.001*[#  55]+0.001*[#  58]+0.001*[#  74]+0.001*[#  77]
          
    |psi|^2 = 0.918

Lowdin Charges: 

     Atom #   1: total charge =   4.4868, s =  1.8445, 
     Atom #   1: total charge =   4.4868, p =  2.6423, pz=  0.9049, px=  0.9450, py=  0.7925, 
     Atom #   2: total charge =   4.4475, s =  1.8755, 
     Atom #   2: total charge =   4.4475, p =  2.5719, pz=  0.9079, px=  0.8638, py=  0.8002, 
     Atom #   3: total charge =   4.5058, s =  1.8776, 
     Atom #   3: total charge =   4.5058, p =  2.6281, pz=  0.9604, px=  0.8691, py=  0.7987, 
     Atom #   4: total charge =   4.3825, s =  1.8459, 
     Atom #   4: total charge =   4.3825, p =  2.5365, pz=  0.7897, px=  0.9547, py=  0.7921, 
     Atom #   5: total charge =   4.2157, s =  1.8300, 
     Atom #   5: total charge =   4.2157, p =  2.3858, pz=  0.7074, px=  0.9359, py=  0.7424, 
     Atom #   6: total charge =   4.2101, s =  1.8548, 
     Atom #   6: total charge =   4.2101, p =  2.3553, pz=  0.7865, px=  0.8379, py=  0.7309, 
     Atom #   7: total charge =   4.2724, s =  1.8670, 
     Atom #   7: total charge =   4.2724, p =  2.4054, pz=  0.8571, px=  0.8182, py=  0.7301, 
     Atom #   8: total charge =   4.2505, s =  1.8302, 
     Atom #   8: total charge =   4.2505, p =  2.4202, pz=  0.7486, px=  0.9341, py=  0.7376, 
     Atom #   9: total charge =   6.7197, s =  1.8711, 
     Atom #   9: total charge =   6.7197, p =  4.8486, pz=  1.8608, px=  1.7594, py=  1.2284, 
     Atom #  10: total charge =   6.4778, s =  1.8675, 
     Atom #  10: total charge =   6.4778, p =  4.6103, pz=  1.5924, px=  1.5038, py=  1.5141, 
     Atom #  11: total charge =   6.3821, s =  1.8701, 
     Atom #  11: total charge =   6.3821, p =  4.5120, pz=  1.5710, px=  1.2828, py=  1.6582, 
     Atom #  12: total charge =   6.4332, s =  1.8710, 
     Atom #  12: total charge =   6.4332, p =  4.5622, pz=  1.6024, px=  1.2879, py=  1.6719, 
     Atom #  13: total charge =   6.4542, s =  1.8683, 
     Atom #  13: total charge =   6.4542, p =  4.5859, pz=  1.5762, px=  1.4734, py=  1.5363, 
     Atom #  14: total charge =   6.6475, s =  1.8728, 
     Atom #  14: total charge =   6.6475, p =  4.7747, pz=  1.7681, px=  1.7524, py=  1.2542, 
     Atom #  15: total charge =   6.2262, s =  1.8453, 
     Atom #  15: total charge =   6.2262, p =  4.3809, pz=  1.3240, px=  1.7788, py=  1.2781, 
     Atom #  16: total charge =   6.2788, s =  1.8373, 
     Atom #  16: total charge =   6.2788, p =  4.4415, pz=  1.3245, px=  1.5726, py=  1.5444, 
     Atom #  17: total charge =   6.3604, s =  1.8424, 
     Atom #  17: total charge =   6.3604, p =  4.5180, pz=  1.4813, px=  1.3567, py=  1.6801, 
     Atom #  18: total charge =   6.4733, s =  1.8402, 
     Atom #  18: total charge =   6.4733, p =  4.6331, pz=  1.5938, px=  1.3712, py=  1.6681, 
     Atom #  19: total charge =   6.3442, s =  1.8368, 
     Atom #  19: total charge =   6.3442, p =  4.5074, pz=  1.3980, px=  1.5795, py=  1.5299, 
     Atom #  20: total charge =   6.1655, s =  1.8437, 
     Atom #  20: total charge =   6.1655, p =  4.3218, pz=  1.2906, px=  1.7637, py=  1.2675, 
     Spilling Parameter:   0.0024

     PROJWFC      :     59.60s CPU   1m 1.31s WALL


   This run was terminated on:  14:47:39  19Sep2022            

=------------------------------------------------------------------------------=
   JOB DONE.
=------------------------------------------------------------------------------=
